
     Program PWSCF v.7.1 starts on  5Sep2022 at 18:10:22 

     This program is part of the open-source Quantum ESPRESSO suite
     for quantum simulation of materials; please cite
         "P. Giannozzi et al., J. Phys.:Condens. Matter 21 395502 (2009);
         "P. Giannozzi et al., J. Phys.:Condens. Matter 29 465901 (2017);
         "P. Giannozzi et al., J. Chem. Phys. 152 154105 (2020);
          URL http://www.quantum-espresso.org", 
     in publications or presentations arising from this work. More details at
     http://www.quantum-espresso.org/quote

     Parallel version (MPI), running on    24 processors

     MPI processes distributed on     1 nodes
     491779 MiB available memory on the printing compute node when the environment starts
 
     Waiting for input...
     Reading input from standard input

     Current dimensions of program PWSCF are:
     Max number of different atomic species (ntypx) = 10
     Max number of k-points (npk) =  40000
     Max angular momentum in pseudopotentials (lmaxx) =  4
     Message from routine setup:
     using ibrav=0 with symmetry is DISCOURAGED, use correct ibrav instead
 
     R & G space division:  proc/nbgrp/npool/nimage =      24
     Subspace diagonalization in iterative solution of the eigenvalue problem:
     a serial algorithm will be used

 
     Parallelization info
     --------------------
     sticks:   dense  smooth     PW     G-vecs:    dense   smooth      PW
     Min          62      62     17                 2648     2648     387
     Max          63      63     18                 2655     2655     394
     Sum        1507    1507    421                63657    63657    9393
 
     Using Slab Decomposition
 


     bravais-lattice index     =            0
     lattice parameter (alat)  =       7.1073  a.u.
     unit-cell volume          =     407.2428 (a.u.)^3
     number of atoms/cell      =            3
     number of atomic types    =            2
     number of electrons       =        50.00
     number of Kohn-Sham states=           30
     kinetic-energy cutoff     =     110.0000  Ry
     charge density cutoff     =     440.0000  Ry
     scf convergence threshold =      1.0E-08
     mixing beta               =       0.2000
     number of iterations used =            8  plain     mixing
     Exchange-correlation= PBE
                           (   1   4   3   4   0   0   0)
     Hubbard projectors: ortho-atomic
     Hubbard parameters of DFT+U (Dudarev formulation) in eV:
     U(Pt-5d) =  0.0001

     Internal variables: lda_plus_u = T, lda_plus_u_kind = 0

     celldm(1)=   7.107260  celldm(2)=   0.000000  celldm(3)=   0.000000
     celldm(4)=   0.000000  celldm(5)=   0.000000  celldm(6)=   0.000000

     crystal axes: (cart. coord. in units of alat)
               a(1) = (   0.990948   0.000000   0.000000 )  
               a(2) = (  -0.495474   0.858186   0.000000 )  
               a(3) = (   0.000000   0.000000   1.333872 )  

     reciprocal axes: (cart. coord. in units 2 pi/alat)
               b(1) = (  1.009134  0.582624  0.000000 )  
               b(2) = (  0.000000  1.165248  0.000000 )  
               b(3) = (  0.000000  0.000000  0.749697 )  


     PseudoPot. # 1 for Pt read from file:
     ./Pt.upf
     MD5 check sum: 3caa314b32314335c676ebce8d0bd64e
     Pseudo is Norm-conserving + core correction, Zval = 18.0
     Generated using ONCVPSP code by D. R. Hamann
     Using radial grid of 1374 points,  8 beta functions with: 
                l(1) =   0
                l(2) =   0
                l(3) =   1
                l(4) =   1
                l(5) =   2
                l(6) =   2
                l(7) =   3
                l(8) =   3

     PseudoPot. # 2 for Se read from file:
     ./Se.upf
     MD5 check sum: 3cc46b3642295b3f4fdae63b742ce36d
     Pseudo is Norm-conserving + core correction, Zval = 16.0
     Generated using ONCVPSP code by D. R. Hamann
     Using radial grid of 1214 points,  6 beta functions with: 
                l(1) =   0
                l(2) =   0
                l(3) =   1
                l(4) =   1
                l(5) =   2
                l(6) =   2

     atomic species   valence    mass     pseudopotential
        Pt            18.00   195.08400     Pt( 1.00)
        Se            16.00    78.96000     Se( 1.00)

     12 Sym. Ops., with inversion, found


                                    s                        frac. trans.

      isym =  1     identity                                     

 cryst.   s( 1) = (     1          0          0      )
                  (     0          1          0      )
                  (     0          0          1      )

 cart.    s( 1) = (  1.0000000  0.0000000  0.0000000 )
                  (  0.0000000  1.0000000  0.0000000 )
                  (  0.0000000  0.0000000  1.0000000 )


      isym =  2     180 deg rotation - cart. axis [1,0,0]        

 cryst.   s( 2) = (     1          0          0      )
                  (    -1         -1          0      )
                  (     0          0         -1      )

 cart.    s( 2) = (  1.0000000  0.0000000  0.0000000 )
                  (  0.0000000 -1.0000000  0.0000000 )
                  (  0.0000000  0.0000000 -1.0000000 )


      isym =  3     120 deg rotation - cryst. axis [0,0,1]       

 cryst.   s( 3) = (     0          1          0      )
                  (    -1         -1          0      )
                  (     0          0          1      )

 cart.    s( 3) = ( -0.5000000 -0.8660254  0.0000000 )
                  (  0.8660254 -0.5000000  0.0000000 )
                  (  0.0000000  0.0000000  1.0000000 )


      isym =  4     120 deg rotation - cryst. axis [0,0,-1]      

 cryst.   s( 4) = (    -1         -1          0      )
                  (     1          0          0      )
                  (     0          0          1      )

 cart.    s( 4) = ( -0.5000000  0.8660254  0.0000000 )
                  ( -0.8660254 -0.5000000  0.0000000 )
                  (  0.0000000  0.0000000  1.0000000 )


      isym =  5     180 deg rotation - cryst. axis [0,1,0]       

 cryst.   s( 5) = (    -1         -1          0      )
                  (     0          1          0      )
                  (     0          0         -1      )

 cart.    s( 5) = ( -0.5000000 -0.8660254  0.0000000 )
                  ( -0.8660254  0.5000000  0.0000000 )
                  (  0.0000000  0.0000000 -1.0000000 )


      isym =  6     180 deg rotation - cryst. axis [1,1,0]       

 cryst.   s( 6) = (     0          1          0      )
                  (     1          0          0      )
                  (     0          0         -1      )

 cart.    s( 6) = ( -0.5000000  0.8660254  0.0000000 )
                  (  0.8660254  0.5000000  0.0000000 )
                  (  0.0000000  0.0000000 -1.0000000 )


      isym =  7     inversion                                    

 cryst.   s( 7) = (    -1          0          0      )
                  (     0         -1          0      )
                  (     0          0         -1      )

 cart.    s( 7) = ( -1.0000000  0.0000000  0.0000000 )
                  (  0.0000000 -1.0000000  0.0000000 )
                  (  0.0000000  0.0000000 -1.0000000 )


      isym =  8     inv. 180 deg rotation - cart. axis [1,0,0]   

 cryst.   s( 8) = (    -1          0          0      )
                  (     1          1          0      )
                  (     0          0          1      )

 cart.    s( 8) = ( -1.0000000  0.0000000  0.0000000 )
                  (  0.0000000  1.0000000  0.0000000 )
                  (  0.0000000  0.0000000  1.0000000 )


      isym =  9     inv. 120 deg rotation - cryst. axis [0,0,1]  

 cryst.   s( 9) = (     0         -1          0      )
                  (     1          1          0      )
                  (     0          0         -1      )

 cart.    s( 9) = (  0.5000000  0.8660254  0.0000000 )
                  ( -0.8660254  0.5000000  0.0000000 )
                  (  0.0000000  0.0000000 -1.0000000 )


      isym = 10     inv. 120 deg rotation - cryst. axis [0,0,-1] 

 cryst.   s(10) = (     1          1          0      )
                  (    -1          0          0      )
                  (     0          0         -1      )

 cart.    s(10) = (  0.5000000 -0.8660254  0.0000000 )
                  (  0.8660254  0.5000000  0.0000000 )
                  (  0.0000000  0.0000000 -1.0000000 )


      isym = 11     inv. 180 deg rotation - cryst. axis [0,1,0]  

 cryst.   s(11) = (     1          1          0      )
                  (     0         -1          0      )
                  (     0          0          1      )

 cart.    s(11) = (  0.5000000  0.8660254  0.0000000 )
                  (  0.8660254 -0.5000000  0.0000000 )
                  (  0.0000000  0.0000000  1.0000000 )


      isym = 12     inv. 180 deg rotation - cryst. axis [1,1,0]  

 cryst.   s(12) = (     0         -1          0      )
                  (    -1          0          0      )
                  (     0          0          1      )

 cart.    s(12) = (  0.5000000 -0.8660254  0.0000000 )
                  ( -0.8660254 -0.5000000  0.0000000 )
                  (  0.0000000  0.0000000  1.0000000 )


   Cartesian axes

     site n.     atom                  positions (alat units)
         1           Pt  tau(   1) = (   0.0000000   0.0000000   0.0000000  )
         2           Se  tau(   2) = (   0.4954747   0.2860619   0.9791000  )
         3           Se  tau(   3) = (  -0.0000005   0.5721246   0.3547718  )

   Crystallographic axes

     site n.     atom                  positions (cryst. coord.)
         1           Pt  tau(   1) = (  0.0000000  0.0000000  0.0000000  )
         2           Se  tau(   2) = (  0.6666670  0.3333330  0.7340286  )
         3           Se  tau(   3) = (  0.3333330  0.6666670  0.2659714  )

     number of k points=   196  Methfessel-Paxton smearing, width (Ry)=  0.0080
                       cart. coord. in units 2pi/alat
        k(    1) = (   0.0000000   0.0000000   0.0000000), wk =   0.0010758
        k(    2) = (   0.0000000   0.0000000   0.0681543), wk =   0.0021517
        k(    3) = (   0.0000000   0.0000000   0.1363086), wk =   0.0021517
        k(    4) = (   0.0000000   0.0000000   0.2044629), wk =   0.0021517
        k(    5) = (   0.0000000   0.0000000   0.2726172), wk =   0.0021517
        k(    6) = (   0.0000000   0.0000000   0.3407715), wk =   0.0021517
        k(    7) = (   0.0000000   0.0896345   0.0000000), wk =   0.0064551
        k(    8) = (   0.0000000   0.0896345   0.0681543), wk =   0.0064551
        k(    9) = (   0.0000000   0.0896345   0.1363086), wk =   0.0064551
        k(   10) = (   0.0000000   0.0896345   0.2044629), wk =   0.0064551
        k(   11) = (   0.0000000   0.0896345   0.2726172), wk =   0.0064551
        k(   12) = (   0.0000000   0.0896345   0.3407715), wk =   0.0064551
        k(   13) = (   0.0000000   0.1792689   0.0000000), wk =   0.0064551
        k(   14) = (   0.0000000   0.1792689   0.0681543), wk =   0.0064551
        k(   15) = (   0.0000000   0.1792689   0.1363086), wk =   0.0064551
        k(   16) = (   0.0000000   0.1792689   0.2044629), wk =   0.0064551
        k(   17) = (   0.0000000   0.1792689   0.2726172), wk =   0.0064551
        k(   18) = (   0.0000000   0.1792689   0.3407715), wk =   0.0064551
        k(   19) = (   0.0000000   0.2689034   0.0000000), wk =   0.0064551
        k(   20) = (   0.0000000   0.2689034   0.0681543), wk =   0.0064551
        k(   21) = (   0.0000000   0.2689034   0.1363086), wk =   0.0064551
        k(   22) = (   0.0000000   0.2689034   0.2044629), wk =   0.0064551
        k(   23) = (   0.0000000   0.2689034   0.2726172), wk =   0.0064551
        k(   24) = (   0.0000000   0.2689034   0.3407715), wk =   0.0064551
        k(   25) = (   0.0000000   0.3585378   0.0000000), wk =   0.0064551
        k(   26) = (   0.0000000   0.3585378   0.0681543), wk =   0.0064551
        k(   27) = (   0.0000000   0.3585378   0.1363086), wk =   0.0064551
        k(   28) = (   0.0000000   0.3585378   0.2044629), wk =   0.0064551
        k(   29) = (   0.0000000   0.3585378   0.2726172), wk =   0.0064551
        k(   30) = (   0.0000000   0.3585378   0.3407715), wk =   0.0064551
        k(   31) = (   0.0000000   0.4481723   0.0000000), wk =   0.0064551
        k(   32) = (   0.0000000   0.4481723   0.0681543), wk =   0.0064551
        k(   33) = (   0.0000000   0.4481723   0.1363086), wk =   0.0064551
        k(   34) = (   0.0000000   0.4481723   0.2044629), wk =   0.0064551
        k(   35) = (   0.0000000   0.4481723   0.2726172), wk =   0.0064551
        k(   36) = (   0.0000000   0.4481723   0.3407715), wk =   0.0064551
        k(   37) = (   0.0000000   0.5378067   0.0000000), wk =   0.0064551
        k(   38) = (   0.0000000   0.5378067   0.0681543), wk =   0.0064551
        k(   39) = (   0.0000000   0.5378067   0.1363086), wk =   0.0064551
        k(   40) = (   0.0000000   0.5378067   0.2044629), wk =   0.0064551
        k(   41) = (   0.0000000   0.5378067   0.2726172), wk =   0.0064551
        k(   42) = (   0.0000000   0.5378067   0.3407715), wk =   0.0064551
        k(   43) = (   0.0776257   0.1344517   0.0000000), wk =   0.0064551
        k(   44) = (   0.0776257   0.1344517   0.0681543), wk =   0.0129102
        k(   45) = (   0.0776257   0.1344517   0.1363086), wk =   0.0129102
        k(   46) = (   0.0776257   0.1344517   0.2044629), wk =   0.0129102
        k(   47) = (   0.0776257   0.1344517   0.2726172), wk =   0.0129102
        k(   48) = (   0.0776257   0.1344517   0.3407715), wk =   0.0129102
        k(   49) = (   0.0776257   0.2240861   0.0000000), wk =   0.0129102
        k(   50) = (   0.0776257   0.2240861   0.0681543), wk =   0.0129102
        k(   51) = (   0.0776257   0.2240861   0.1363086), wk =   0.0129102
        k(   52) = (   0.0776257   0.2240861   0.2044629), wk =   0.0129102
        k(   53) = (   0.0776257   0.2240861   0.2726172), wk =   0.0129102
        k(   54) = (   0.0776257   0.2240861   0.3407715), wk =   0.0129102
        k(   55) = (   0.0776257   0.3137206   0.0000000), wk =   0.0129102
        k(   56) = (   0.0776257   0.3137206   0.0681543), wk =   0.0129102
        k(   57) = (   0.0776257   0.3137206   0.1363086), wk =   0.0129102
        k(   58) = (   0.0776257   0.3137206   0.2044629), wk =   0.0129102
        k(   59) = (   0.0776257   0.3137206   0.2726172), wk =   0.0129102
        k(   60) = (   0.0776257   0.3137206   0.3407715), wk =   0.0129102
        k(   61) = (   0.0776257   0.4033550   0.0000000), wk =   0.0129102
        k(   62) = (   0.0776257   0.4033550   0.0681543), wk =   0.0129102
        k(   63) = (   0.0776257   0.4033550   0.1363086), wk =   0.0129102
        k(   64) = (   0.0776257   0.4033550   0.2044629), wk =   0.0129102
        k(   65) = (   0.0776257   0.4033550   0.2726172), wk =   0.0129102
        k(   66) = (   0.0776257   0.4033550   0.3407715), wk =   0.0129102
        k(   67) = (   0.0776257   0.4929895   0.0000000), wk =   0.0129102
        k(   68) = (   0.0776257   0.4929895   0.0681543), wk =   0.0129102
        k(   69) = (   0.0776257   0.4929895   0.1363086), wk =   0.0129102
        k(   70) = (   0.0776257   0.4929895   0.2044629), wk =   0.0129102
        k(   71) = (   0.0776257   0.4929895   0.2726172), wk =   0.0129102
        k(   72) = (   0.0776257   0.4929895   0.3407715), wk =   0.0129102
        k(   73) = (   0.0776257   0.5826240   0.0000000), wk =   0.0064551
        k(   74) = (   0.0776257   0.5826240   0.0681543), wk =   0.0129102
        k(   75) = (   0.0776257   0.5826240   0.1363086), wk =   0.0129102
        k(   76) = (   0.0776257   0.5826240   0.2044629), wk =   0.0129102
        k(   77) = (   0.0776257   0.5826240   0.2726172), wk =   0.0129102
        k(   78) = (   0.0776257   0.5826240   0.3407715), wk =   0.0129102
        k(   79) = (   0.1552514   0.2689034   0.0000000), wk =   0.0064551
        k(   80) = (   0.1552514   0.2689034   0.0681543), wk =   0.0129102
        k(   81) = (   0.1552514   0.2689034   0.1363086), wk =   0.0129102
        k(   82) = (   0.1552514   0.2689034   0.2044629), wk =   0.0129102
        k(   83) = (   0.1552514   0.2689034   0.2726172), wk =   0.0129102
        k(   84) = (   0.1552514   0.2689034   0.3407715), wk =   0.0129102
        k(   85) = (   0.1552514   0.3585378   0.0000000), wk =   0.0129102
        k(   86) = (   0.1552514   0.3585378   0.0681543), wk =   0.0129102
        k(   87) = (   0.1552514   0.3585378   0.1363086), wk =   0.0129102
        k(   88) = (   0.1552514   0.3585378   0.2044629), wk =   0.0129102
        k(   89) = (   0.1552514   0.3585378   0.2726172), wk =   0.0129102
        k(   90) = (   0.1552514   0.3585378   0.3407715), wk =   0.0129102
        k(   91) = (   0.1552514   0.4481723   0.0000000), wk =   0.0129102
        k(   92) = (   0.1552514   0.4481723   0.0681543), wk =   0.0129102
        k(   93) = (   0.1552514   0.4481723   0.1363086), wk =   0.0129102
        k(   94) = (   0.1552514   0.4481723   0.2044629), wk =   0.0129102
        k(   95) = (   0.1552514   0.4481723   0.2726172), wk =   0.0129102
        k(   96) = (   0.1552514   0.4481723   0.3407715), wk =   0.0129102
        k(   97) = (   0.1552514   0.5378067   0.0000000), wk =   0.0129102
        k(   98) = (   0.1552514   0.5378067   0.0681543), wk =   0.0129102
        k(   99) = (   0.1552514   0.5378067   0.1363086), wk =   0.0129102
        k(  100) = (   0.1552514   0.5378067   0.2044629), wk =   0.0129102
        k(  101) = (   0.1552514   0.5378067   0.2726172), wk =   0.0129102
        k(  102) = (   0.1552514   0.5378067   0.3407715), wk =   0.0129102
        k(  103) = (   0.2328771   0.4033550   0.0000000), wk =   0.0064551
        k(  104) = (   0.2328771   0.4033550   0.0681543), wk =   0.0129102
        k(  105) = (   0.2328771   0.4033550   0.1363086), wk =   0.0129102
        k(  106) = (   0.2328771   0.4033550   0.2044629), wk =   0.0129102
        k(  107) = (   0.2328771   0.4033550   0.2726172), wk =   0.0129102
        k(  108) = (   0.2328771   0.4033550   0.3407715), wk =   0.0129102
        k(  109) = (   0.2328771   0.4929895   0.0000000), wk =   0.0129102
        k(  110) = (   0.2328771   0.4929895   0.0681543), wk =   0.0129102
        k(  111) = (   0.2328771   0.4929895   0.1363086), wk =   0.0129102
        k(  112) = (   0.2328771   0.4929895   0.2044629), wk =   0.0129102
        k(  113) = (   0.2328771   0.4929895   0.2726172), wk =   0.0129102
        k(  114) = (   0.2328771   0.4929895   0.3407715), wk =   0.0129102
        k(  115) = (   0.2328771   0.5826240   0.0000000), wk =   0.0064551
        k(  116) = (   0.2328771   0.5826240   0.0681543), wk =   0.0129102
        k(  117) = (   0.2328771   0.5826240   0.1363086), wk =   0.0129102
        k(  118) = (   0.2328771   0.5826240   0.2044629), wk =   0.0129102
        k(  119) = (   0.2328771   0.5826240   0.2726172), wk =   0.0129102
        k(  120) = (   0.2328771   0.5826240   0.3407715), wk =   0.0129102
        k(  121) = (   0.3105029   0.5378067   0.0000000), wk =   0.0064551
        k(  122) = (   0.3105029   0.5378067   0.0681543), wk =   0.0129102
        k(  123) = (   0.3105029   0.5378067   0.1363086), wk =   0.0129102
        k(  124) = (   0.3105029   0.5378067   0.2044629), wk =   0.0129102
        k(  125) = (   0.3105029   0.5378067   0.2726172), wk =   0.0129102
        k(  126) = (   0.3105029   0.5378067   0.3407715), wk =   0.0129102
        k(  127) = (   0.0000000   0.0896345  -0.0681543), wk =   0.0064551
        k(  128) = (   0.0000000   0.0896345  -0.1363086), wk =   0.0064551
        k(  129) = (   0.0000000   0.0896345  -0.2044629), wk =   0.0064551
        k(  130) = (   0.0000000   0.0896345  -0.2726172), wk =   0.0064551
        k(  131) = (   0.0000000   0.0896345  -0.3407715), wk =   0.0064551
        k(  132) = (   0.0000000   0.1792689  -0.0681543), wk =   0.0064551
        k(  133) = (   0.0000000   0.1792689  -0.1363086), wk =   0.0064551
        k(  134) = (   0.0000000   0.1792689  -0.2044629), wk =   0.0064551
        k(  135) = (   0.0000000   0.1792689  -0.2726172), wk =   0.0064551
        k(  136) = (   0.0000000   0.1792689  -0.3407715), wk =   0.0064551
        k(  137) = (   0.0000000   0.2689034  -0.0681543), wk =   0.0064551
        k(  138) = (   0.0000000   0.2689034  -0.1363086), wk =   0.0064551
        k(  139) = (   0.0000000   0.2689034  -0.2044629), wk =   0.0064551
        k(  140) = (   0.0000000   0.2689034  -0.2726172), wk =   0.0064551
        k(  141) = (   0.0000000   0.2689034  -0.3407715), wk =   0.0064551
        k(  142) = (   0.0000000   0.3585378  -0.0681543), wk =   0.0064551
        k(  143) = (   0.0000000   0.3585378  -0.1363086), wk =   0.0064551
        k(  144) = (   0.0000000   0.3585378  -0.2044629), wk =   0.0064551
        k(  145) = (   0.0000000   0.3585378  -0.2726172), wk =   0.0064551
        k(  146) = (   0.0000000   0.3585378  -0.3407715), wk =   0.0064551
        k(  147) = (   0.0000000   0.4481723  -0.0681543), wk =   0.0064551
        k(  148) = (   0.0000000   0.4481723  -0.1363086), wk =   0.0064551
        k(  149) = (   0.0000000   0.4481723  -0.2044629), wk =   0.0064551
        k(  150) = (   0.0000000   0.4481723  -0.2726172), wk =   0.0064551
        k(  151) = (   0.0000000   0.4481723  -0.3407715), wk =   0.0064551
        k(  152) = (   0.0000000   0.5378067  -0.0681543), wk =   0.0064551
        k(  153) = (   0.0000000   0.5378067  -0.1363086), wk =   0.0064551
        k(  154) = (   0.0000000   0.5378067  -0.2044629), wk =   0.0064551
        k(  155) = (   0.0000000   0.5378067  -0.2726172), wk =   0.0064551
        k(  156) = (   0.0000000   0.5378067  -0.3407715), wk =   0.0064551
        k(  157) = (  -0.0776257   0.2240861  -0.0681543), wk =   0.0129102
        k(  158) = (  -0.0776257   0.2240861  -0.1363086), wk =   0.0129102
        k(  159) = (  -0.0776257   0.2240861  -0.2044629), wk =   0.0129102
        k(  160) = (  -0.0776257   0.2240861  -0.2726172), wk =   0.0129102
        k(  161) = (  -0.0776257   0.2240861  -0.3407715), wk =   0.0129102
        k(  162) = (  -0.0776257   0.3137206  -0.0681543), wk =   0.0129102
        k(  163) = (  -0.0776257   0.3137206  -0.1363086), wk =   0.0129102
        k(  164) = (  -0.0776257   0.3137206  -0.2044629), wk =   0.0129102
        k(  165) = (  -0.0776257   0.3137206  -0.2726172), wk =   0.0129102
        k(  166) = (  -0.0776257   0.3137206  -0.3407715), wk =   0.0129102
        k(  167) = (  -0.0776257   0.4033550  -0.0681543), wk =   0.0129102
        k(  168) = (  -0.0776257   0.4033550  -0.1363086), wk =   0.0129102
        k(  169) = (  -0.0776257   0.4033550  -0.2044629), wk =   0.0129102
        k(  170) = (  -0.0776257   0.4033550  -0.2726172), wk =   0.0129102
        k(  171) = (  -0.0776257   0.4033550  -0.3407715), wk =   0.0129102
        k(  172) = (  -0.0776257   0.4929895  -0.0681543), wk =   0.0129102
        k(  173) = (  -0.0776257   0.4929895  -0.1363086), wk =   0.0129102
        k(  174) = (  -0.0776257   0.4929895  -0.2044629), wk =   0.0129102
        k(  175) = (  -0.0776257   0.4929895  -0.2726172), wk =   0.0129102
        k(  176) = (  -0.0776257   0.4929895  -0.3407715), wk =   0.0129102
        k(  177) = (  -0.1552514   0.3585378  -0.0681543), wk =   0.0129102
        k(  178) = (  -0.1552514   0.3585378  -0.1363086), wk =   0.0129102
        k(  179) = (  -0.1552514   0.3585378  -0.2044629), wk =   0.0129102
        k(  180) = (  -0.1552514   0.3585378  -0.2726172), wk =   0.0129102
        k(  181) = (  -0.1552514   0.3585378  -0.3407715), wk =   0.0129102
        k(  182) = (  -0.1552514   0.4481723  -0.0681543), wk =   0.0129102
        k(  183) = (  -0.1552514   0.4481723  -0.1363086), wk =   0.0129102
        k(  184) = (  -0.1552514   0.4481723  -0.2044629), wk =   0.0129102
        k(  185) = (  -0.1552514   0.4481723  -0.2726172), wk =   0.0129102
        k(  186) = (  -0.1552514   0.4481723  -0.3407715), wk =   0.0129102
        k(  187) = (  -0.1552514   0.5378067  -0.0681543), wk =   0.0129102
        k(  188) = (  -0.1552514   0.5378067  -0.1363086), wk =   0.0129102
        k(  189) = (  -0.1552514   0.5378067  -0.2044629), wk =   0.0129102
        k(  190) = (  -0.1552514   0.5378067  -0.2726172), wk =   0.0129102
        k(  191) = (  -0.1552514   0.5378067  -0.3407715), wk =   0.0129102
        k(  192) = (  -0.2328771   0.4929895  -0.0681543), wk =   0.0129102
        k(  193) = (  -0.2328771   0.4929895  -0.1363086), wk =   0.0129102
        k(  194) = (  -0.2328771   0.4929895  -0.2044629), wk =   0.0129102
        k(  195) = (  -0.2328771   0.4929895  -0.2726172), wk =   0.0129102
        k(  196) = (  -0.2328771   0.4929895  -0.3407715), wk =   0.0129102

                       cryst. coord.
        k(    1) = (   0.0000000   0.0000000   0.0000000), wk =   0.0010758
        k(    2) = (   0.0000000   0.0000000   0.0909091), wk =   0.0021517
        k(    3) = (   0.0000000   0.0000000   0.1818182), wk =   0.0021517
        k(    4) = (   0.0000000   0.0000000   0.2727273), wk =   0.0021517
        k(    5) = (   0.0000000   0.0000000   0.3636364), wk =   0.0021517
        k(    6) = (   0.0000000   0.0000000   0.4545455), wk =   0.0021517
        k(    7) = (   0.0000000   0.0769231   0.0000000), wk =   0.0064551
        k(    8) = (   0.0000000   0.0769231   0.0909091), wk =   0.0064551
        k(    9) = (   0.0000000   0.0769231   0.1818182), wk =   0.0064551
        k(   10) = (   0.0000000   0.0769231   0.2727273), wk =   0.0064551
        k(   11) = (   0.0000000   0.0769231   0.3636364), wk =   0.0064551
        k(   12) = (   0.0000000   0.0769231   0.4545455), wk =   0.0064551
        k(   13) = (   0.0000000   0.1538462   0.0000000), wk =   0.0064551
        k(   14) = (   0.0000000   0.1538462   0.0909091), wk =   0.0064551
        k(   15) = (   0.0000000   0.1538462   0.1818182), wk =   0.0064551
        k(   16) = (   0.0000000   0.1538462   0.2727273), wk =   0.0064551
        k(   17) = (   0.0000000   0.1538462   0.3636364), wk =   0.0064551
        k(   18) = (   0.0000000   0.1538462   0.4545455), wk =   0.0064551
        k(   19) = (   0.0000000   0.2307692   0.0000000), wk =   0.0064551
        k(   20) = (   0.0000000   0.2307692   0.0909091), wk =   0.0064551
        k(   21) = (   0.0000000   0.2307692   0.1818182), wk =   0.0064551
        k(   22) = (   0.0000000   0.2307692   0.2727273), wk =   0.0064551
        k(   23) = (   0.0000000   0.2307692   0.3636364), wk =   0.0064551
        k(   24) = (   0.0000000   0.2307692   0.4545455), wk =   0.0064551
        k(   25) = (   0.0000000   0.3076923   0.0000000), wk =   0.0064551
        k(   26) = (   0.0000000   0.3076923   0.0909091), wk =   0.0064551
        k(   27) = (   0.0000000   0.3076923   0.1818182), wk =   0.0064551
        k(   28) = (   0.0000000   0.3076923   0.2727273), wk =   0.0064551
        k(   29) = (   0.0000000   0.3076923   0.3636364), wk =   0.0064551
        k(   30) = (   0.0000000   0.3076923   0.4545455), wk =   0.0064551
        k(   31) = (   0.0000000   0.3846154   0.0000000), wk =   0.0064551
        k(   32) = (   0.0000000   0.3846154   0.0909091), wk =   0.0064551
        k(   33) = (   0.0000000   0.3846154   0.1818182), wk =   0.0064551
        k(   34) = (   0.0000000   0.3846154   0.2727273), wk =   0.0064551
        k(   35) = (   0.0000000   0.3846154   0.3636364), wk =   0.0064551
        k(   36) = (   0.0000000   0.3846154   0.4545455), wk =   0.0064551
        k(   37) = (   0.0000000   0.4615385   0.0000000), wk =   0.0064551
        k(   38) = (   0.0000000   0.4615385   0.0909091), wk =   0.0064551
        k(   39) = (   0.0000000   0.4615385   0.1818182), wk =   0.0064551
        k(   40) = (   0.0000000   0.4615385   0.2727273), wk =   0.0064551
        k(   41) = (   0.0000000   0.4615385   0.3636364), wk =   0.0064551
        k(   42) = (   0.0000000   0.4615385   0.4545455), wk =   0.0064551
        k(   43) = (   0.0769231   0.0769231   0.0000000), wk =   0.0064551
        k(   44) = (   0.0769231   0.0769231   0.0909091), wk =   0.0129102
        k(   45) = (   0.0769231   0.0769231   0.1818182), wk =   0.0129102
        k(   46) = (   0.0769231   0.0769231   0.2727273), wk =   0.0129102
        k(   47) = (   0.0769231   0.0769231   0.3636364), wk =   0.0129102
        k(   48) = (   0.0769231   0.0769231   0.4545455), wk =   0.0129102
        k(   49) = (   0.0769231   0.1538462   0.0000000), wk =   0.0129102
        k(   50) = (   0.0769231   0.1538462   0.0909091), wk =   0.0129102
        k(   51) = (   0.0769231   0.1538462   0.1818182), wk =   0.0129102
        k(   52) = (   0.0769231   0.1538462   0.2727273), wk =   0.0129102
        k(   53) = (   0.0769231   0.1538462   0.3636364), wk =   0.0129102
        k(   54) = (   0.0769231   0.1538462   0.4545455), wk =   0.0129102
        k(   55) = (   0.0769231   0.2307692   0.0000000), wk =   0.0129102
        k(   56) = (   0.0769231   0.2307692   0.0909091), wk =   0.0129102
        k(   57) = (   0.0769231   0.2307692   0.1818182), wk =   0.0129102
        k(   58) = (   0.0769231   0.2307692   0.2727273), wk =   0.0129102
        k(   59) = (   0.0769231   0.2307692   0.3636364), wk =   0.0129102
        k(   60) = (   0.0769231   0.2307692   0.4545455), wk =   0.0129102
        k(   61) = (   0.0769231   0.3076923   0.0000000), wk =   0.0129102
        k(   62) = (   0.0769231   0.3076923   0.0909091), wk =   0.0129102
        k(   63) = (   0.0769231   0.3076923   0.1818182), wk =   0.0129102
        k(   64) = (   0.0769231   0.3076923   0.2727273), wk =   0.0129102
        k(   65) = (   0.0769231   0.3076923   0.3636364), wk =   0.0129102
        k(   66) = (   0.0769231   0.3076923   0.4545455), wk =   0.0129102
        k(   67) = (   0.0769231   0.3846154   0.0000000), wk =   0.0129102
        k(   68) = (   0.0769231   0.3846154   0.0909091), wk =   0.0129102
        k(   69) = (   0.0769231   0.3846154   0.1818182), wk =   0.0129102
        k(   70) = (   0.0769231   0.3846154   0.2727273), wk =   0.0129102
        k(   71) = (   0.0769231   0.3846154   0.3636364), wk =   0.0129102
        k(   72) = (   0.0769231   0.3846154   0.4545455), wk =   0.0129102
        k(   73) = (   0.0769231   0.4615385   0.0000000), wk =   0.0064551
        k(   74) = (   0.0769231   0.4615385   0.0909091), wk =   0.0129102
        k(   75) = (   0.0769231   0.4615385   0.1818182), wk =   0.0129102
        k(   76) = (   0.0769231   0.4615385   0.2727273), wk =   0.0129102
        k(   77) = (   0.0769231   0.4615385   0.3636364), wk =   0.0129102
        k(   78) = (   0.0769231   0.4615385   0.4545455), wk =   0.0129102
        k(   79) = (   0.1538462   0.1538462   0.0000000), wk =   0.0064551
        k(   80) = (   0.1538462   0.1538462   0.0909091), wk =   0.0129102
        k(   81) = (   0.1538462   0.1538462   0.1818182), wk =   0.0129102
        k(   82) = (   0.1538462   0.1538462   0.2727273), wk =   0.0129102
        k(   83) = (   0.1538462   0.1538462   0.3636364), wk =   0.0129102
        k(   84) = (   0.1538462   0.1538462   0.4545455), wk =   0.0129102
        k(   85) = (   0.1538462   0.2307692   0.0000000), wk =   0.0129102
        k(   86) = (   0.1538462   0.2307692   0.0909091), wk =   0.0129102
        k(   87) = (   0.1538462   0.2307692   0.1818182), wk =   0.0129102
        k(   88) = (   0.1538462   0.2307692   0.2727273), wk =   0.0129102
        k(   89) = (   0.1538462   0.2307692   0.3636364), wk =   0.0129102
        k(   90) = (   0.1538462   0.2307692   0.4545455), wk =   0.0129102
        k(   91) = (   0.1538462   0.3076923   0.0000000), wk =   0.0129102
        k(   92) = (   0.1538462   0.3076923   0.0909091), wk =   0.0129102
        k(   93) = (   0.1538462   0.3076923   0.1818182), wk =   0.0129102
        k(   94) = (   0.1538462   0.3076923   0.2727273), wk =   0.0129102
        k(   95) = (   0.1538462   0.3076923   0.3636364), wk =   0.0129102
        k(   96) = (   0.1538462   0.3076923   0.4545455), wk =   0.0129102
        k(   97) = (   0.1538462   0.3846154   0.0000000), wk =   0.0129102
        k(   98) = (   0.1538462   0.3846154   0.0909091), wk =   0.0129102
        k(   99) = (   0.1538462   0.3846154   0.1818182), wk =   0.0129102
        k(  100) = (   0.1538462   0.3846154   0.2727273), wk =   0.0129102
        k(  101) = (   0.1538462   0.3846154   0.3636364), wk =   0.0129102
        k(  102) = (   0.1538462   0.3846154   0.4545455), wk =   0.0129102
        k(  103) = (   0.2307692   0.2307692   0.0000000), wk =   0.0064551
        k(  104) = (   0.2307692   0.2307692   0.0909091), wk =   0.0129102
        k(  105) = (   0.2307692   0.2307692   0.1818182), wk =   0.0129102
        k(  106) = (   0.2307692   0.2307692   0.2727273), wk =   0.0129102
        k(  107) = (   0.2307692   0.2307692   0.3636364), wk =   0.0129102
        k(  108) = (   0.2307692   0.2307692   0.4545455), wk =   0.0129102
        k(  109) = (   0.2307692   0.3076923   0.0000000), wk =   0.0129102
        k(  110) = (   0.2307692   0.3076923   0.0909091), wk =   0.0129102
        k(  111) = (   0.2307692   0.3076923   0.1818182), wk =   0.0129102
        k(  112) = (   0.2307692   0.3076923   0.2727273), wk =   0.0129102
        k(  113) = (   0.2307692   0.3076923   0.3636364), wk =   0.0129102
        k(  114) = (   0.2307692   0.3076923   0.4545455), wk =   0.0129102
        k(  115) = (   0.2307692   0.3846154   0.0000000), wk =   0.0064551
        k(  116) = (   0.2307692   0.3846154   0.0909091), wk =   0.0129102
        k(  117) = (   0.2307692   0.3846154   0.1818182), wk =   0.0129102
        k(  118) = (   0.2307692   0.3846154   0.2727273), wk =   0.0129102
        k(  119) = (   0.2307692   0.3846154   0.3636364), wk =   0.0129102
        k(  120) = (   0.2307692   0.3846154   0.4545455), wk =   0.0129102
        k(  121) = (   0.3076923   0.3076923   0.0000000), wk =   0.0064551
        k(  122) = (   0.3076923   0.3076923   0.0909091), wk =   0.0129102
        k(  123) = (   0.3076923   0.3076923   0.1818182), wk =   0.0129102
        k(  124) = (   0.3076923   0.3076923   0.2727273), wk =   0.0129102
        k(  125) = (   0.3076923   0.3076923   0.3636364), wk =   0.0129102
        k(  126) = (   0.3076923   0.3076923   0.4545455), wk =   0.0129102
        k(  127) = (   0.0000000   0.0769231  -0.0909091), wk =   0.0064551
        k(  128) = (   0.0000000   0.0769231  -0.1818182), wk =   0.0064551
        k(  129) = (   0.0000000   0.0769231  -0.2727273), wk =   0.0064551
        k(  130) = (   0.0000000   0.0769231  -0.3636364), wk =   0.0064551
        k(  131) = (   0.0000000   0.0769231  -0.4545455), wk =   0.0064551
        k(  132) = (   0.0000000   0.1538462  -0.0909091), wk =   0.0064551
        k(  133) = (   0.0000000   0.1538462  -0.1818182), wk =   0.0064551
        k(  134) = (   0.0000000   0.1538462  -0.2727273), wk =   0.0064551
        k(  135) = (   0.0000000   0.1538462  -0.3636364), wk =   0.0064551
        k(  136) = (   0.0000000   0.1538462  -0.4545455), wk =   0.0064551
        k(  137) = (   0.0000000   0.2307692  -0.0909091), wk =   0.0064551
        k(  138) = (   0.0000000   0.2307692  -0.1818182), wk =   0.0064551
        k(  139) = (   0.0000000   0.2307692  -0.2727273), wk =   0.0064551
        k(  140) = (   0.0000000   0.2307692  -0.3636364), wk =   0.0064551
        k(  141) = (   0.0000000   0.2307692  -0.4545455), wk =   0.0064551
        k(  142) = (   0.0000000   0.3076923  -0.0909091), wk =   0.0064551
        k(  143) = (   0.0000000   0.3076923  -0.1818182), wk =   0.0064551
        k(  144) = (   0.0000000   0.3076923  -0.2727273), wk =   0.0064551
        k(  145) = (   0.0000000   0.3076923  -0.3636364), wk =   0.0064551
        k(  146) = (   0.0000000   0.3076923  -0.4545455), wk =   0.0064551
        k(  147) = (   0.0000000   0.3846154  -0.0909091), wk =   0.0064551
        k(  148) = (   0.0000000   0.3846154  -0.1818182), wk =   0.0064551
        k(  149) = (   0.0000000   0.3846154  -0.2727273), wk =   0.0064551
        k(  150) = (   0.0000000   0.3846154  -0.3636364), wk =   0.0064551
        k(  151) = (   0.0000000   0.3846154  -0.4545455), wk =   0.0064551
        k(  152) = (   0.0000000   0.4615385  -0.0909091), wk =   0.0064551
        k(  153) = (   0.0000000   0.4615385  -0.1818182), wk =   0.0064551
        k(  154) = (   0.0000000   0.4615385  -0.2727273), wk =   0.0064551
        k(  155) = (   0.0000000   0.4615385  -0.3636364), wk =   0.0064551
        k(  156) = (   0.0000000   0.4615385  -0.4545455), wk =   0.0064551
        k(  157) = (  -0.0769231   0.2307692  -0.0909091), wk =   0.0129102
        k(  158) = (  -0.0769231   0.2307692  -0.1818182), wk =   0.0129102
        k(  159) = (  -0.0769231   0.2307692  -0.2727273), wk =   0.0129102
        k(  160) = (  -0.0769231   0.2307692  -0.3636364), wk =   0.0129102
        k(  161) = (  -0.0769231   0.2307692  -0.4545455), wk =   0.0129102
        k(  162) = (  -0.0769231   0.3076923  -0.0909091), wk =   0.0129102
        k(  163) = (  -0.0769231   0.3076923  -0.1818182), wk =   0.0129102
        k(  164) = (  -0.0769231   0.3076923  -0.2727273), wk =   0.0129102
        k(  165) = (  -0.0769231   0.3076923  -0.3636364), wk =   0.0129102
        k(  166) = (  -0.0769231   0.3076923  -0.4545455), wk =   0.0129102
        k(  167) = (  -0.0769231   0.3846154  -0.0909091), wk =   0.0129102
        k(  168) = (  -0.0769231   0.3846154  -0.1818182), wk =   0.0129102
        k(  169) = (  -0.0769231   0.3846154  -0.2727273), wk =   0.0129102
        k(  170) = (  -0.0769231   0.3846154  -0.3636364), wk =   0.0129102
        k(  171) = (  -0.0769231   0.3846154  -0.4545455), wk =   0.0129102
        k(  172) = (  -0.0769231   0.4615385  -0.0909091), wk =   0.0129102
        k(  173) = (  -0.0769231   0.4615385  -0.1818182), wk =   0.0129102
        k(  174) = (  -0.0769231   0.4615385  -0.2727273), wk =   0.0129102
        k(  175) = (  -0.0769231   0.4615385  -0.3636364), wk =   0.0129102
        k(  176) = (  -0.0769231   0.4615385  -0.4545455), wk =   0.0129102
        k(  177) = (  -0.1538462   0.3846154  -0.0909091), wk =   0.0129102
        k(  178) = (  -0.1538462   0.3846154  -0.1818182), wk =   0.0129102
        k(  179) = (  -0.1538462   0.3846154  -0.2727273), wk =   0.0129102
        k(  180) = (  -0.1538462   0.3846154  -0.3636364), wk =   0.0129102
        k(  181) = (  -0.1538462   0.3846154  -0.4545455), wk =   0.0129102
        k(  182) = (  -0.1538462   0.4615385  -0.0909091), wk =   0.0129102
        k(  183) = (  -0.1538462   0.4615385  -0.1818182), wk =   0.0129102
        k(  184) = (  -0.1538462   0.4615385  -0.2727273), wk =   0.0129102
        k(  185) = (  -0.1538462   0.4615385  -0.3636364), wk =   0.0129102
        k(  186) = (  -0.1538462   0.4615385  -0.4545455), wk =   0.0129102
        k(  187) = (  -0.1538462   0.5384615  -0.0909091), wk =   0.0129102
        k(  188) = (  -0.1538462   0.5384615  -0.1818182), wk =   0.0129102
        k(  189) = (  -0.1538462   0.5384615  -0.2727273), wk =   0.0129102
        k(  190) = (  -0.1538462   0.5384615  -0.3636364), wk =   0.0129102
        k(  191) = (  -0.1538462   0.5384615  -0.4545455), wk =   0.0129102
        k(  192) = (  -0.2307692   0.5384615  -0.0909091), wk =   0.0129102
        k(  193) = (  -0.2307692   0.5384615  -0.1818182), wk =   0.0129102
        k(  194) = (  -0.2307692   0.5384615  -0.2727273), wk =   0.0129102
        k(  195) = (  -0.2307692   0.5384615  -0.3636364), wk =   0.0129102
        k(  196) = (  -0.2307692   0.5384615  -0.4545455), wk =   0.0129102

     Dense  grid:    63657 G-vectors     FFT dimensions: (  48,  48,  64)

     Dynamical RAM for                 wfc:       0.15 MB

     Dynamical RAM for     wfc (w. buffer):      29.76 MB

     Dynamical RAM for             U proj.:       0.03 MB

     Dynamical RAM for  U proj. (w. buff.):       4.96 MB

     Dynamical RAM for           str. fact:       0.08 MB

     Dynamical RAM for           local pot:       0.00 MB

     Dynamical RAM for          nlocal pot:       0.34 MB

     Dynamical RAM for                qrad:       8.08 MB

     Dynamical RAM for          rho,v,vnew:       0.28 MB

     Dynamical RAM for               rhoin:       0.09 MB

     Dynamical RAM for            rho*nmix:       0.65 MB

     Dynamical RAM for           G-vectors:       0.17 MB

     Dynamical RAM for          h,s,v(r/c):       0.16 MB

     Dynamical RAM for          <psi|beta>:       0.03 MB

     Dynamical RAM for                 psi:       0.30 MB

     Dynamical RAM for                hpsi:       0.30 MB

     Dynamical RAM for      wfcinit/wfcrot:       0.32 MB

     Estimated static dynamical RAM per process >      44.15 MB

     Estimated max dynamical RAM per process >      45.60 MB

     Estimated total dynamical RAM >       1.07 GB

     Initial potential from superposition of free atoms

     starting charge      49.9997, renormalised to      50.0000

     HUBBARD ENERGY =    0.0000  (Ry)

     STARTING HUBBARD OCCUPATIONS:

     =================== HUBBARD OCCUPATIONS ===================
     ------------------------ ATOM    1 ------------------------
     Tr[ns(  1)] =   9.00000
     eigenvalues:
       0.900  0.900  0.900  0.900  0.900
     eigenvectors (columns):
       1.000  0.000  0.000  0.000  0.000
       0.000  1.000  0.000  0.000  0.000
       0.000  0.000  1.000  0.000  0.000
       0.000  0.000  0.000  1.000  0.000
       0.000  0.000  0.000  0.000  1.000
     occupation matrix ns (before diag.):
       0.900  0.000  0.000  0.000  0.000
       0.000  0.900  0.000  0.000  0.000
       0.000  0.000  0.900  0.000  0.000
       0.000  0.000  0.000  0.900  0.000
       0.000  0.000  0.000  0.000  0.900

     Number of occupied Hubbard levels =    9.0000

     Atomic wfc used for Hubbard projectors are orthogonalized

     Starting wfcs are   28 randomized atomic wfcs +    2 random wfcs

     total cpu time spent up to now is        2.2 secs

     Self-consistent Calculation

     iteration #  1     ecut=   110.00 Ry     beta= 0.20
     Davidson diagonalization with overlap

---- Real-time Memory Report at c_bands before calling an iterative solver
           215 MiB given to the printing process from OS
             0 MiB allocation reported by mallinfo(arena+hblkhd)
        490378 MiB available memory on the node where the printing process lives
------------------
     ethr =  1.00E-02,  avg # of iterations =  5.9

     =================== HUBBARD OCCUPATIONS ===================
     ------------------------ ATOM    1 ------------------------
     Tr[ns(  1)] =   8.29432
     eigenvalues:
       0.621  0.621  0.967  0.969  0.969
     eigenvectors (columns):
       0.000  0.000 -1.000 -0.000  0.000
      -0.409  0.705  0.000 -0.551  0.181
       0.705  0.409  0.000  0.181  0.551
       0.502  0.291 -0.000 -0.255 -0.774
      -0.291  0.502 -0.000  0.774 -0.255
     occupation matrix ns (before diag.):
       0.967 -0.000 -0.000 -0.000 -0.000
      -0.000  0.738 -0.000  0.000 -0.165
      -0.000 -0.000  0.738 -0.165 -0.000
      -0.000  0.000 -0.165  0.852  0.000
      -0.000 -0.165 -0.000  0.000  0.852

     Number of occupied Hubbard levels =    8.2943

     Threshold (ethr) on eigenvalues was too large:
     Diagonalizing with lowered threshold

     Davidson diagonalization with overlap

---- Real-time Memory Report at c_bands before calling an iterative solver
           218 MiB given to the printing process from OS
             0 MiB allocation reported by mallinfo(arena+hblkhd)
        490373 MiB available memory on the node where the printing process lives
------------------
     ethr =  5.67E-04,  avg # of iterations =  1.6

     =================== HUBBARD OCCUPATIONS ===================
     ------------------------ ATOM    1 ------------------------
     Tr[ns(  1)] =   8.29141
     eigenvalues:
       0.621  0.621  0.967  0.969  0.969
     eigenvectors (columns):
       0.000  0.000 -1.000 -0.000  0.000
      -0.408  0.706  0.000 -0.550  0.181
       0.706  0.408  0.000  0.181  0.550
       0.502  0.290 -0.000 -0.255 -0.774
      -0.290  0.502 -0.000  0.774 -0.255
     occupation matrix ns (before diag.):
       0.967 -0.000 -0.000 -0.000 -0.000
      -0.000  0.738 -0.000  0.000 -0.164
      -0.000 -0.000  0.738 -0.164 -0.000
      -0.000  0.000 -0.164  0.852  0.000
      -0.000 -0.164 -0.000  0.000  0.852

     Number of occupied Hubbard levels =    8.2914

     HUBBARD ENERGY =    0.0000  (Ry)

     total cpu time spent up to now is       11.3 secs

     WARNING: integrated charge=    49.99991997, expected=    50.00000000

     total energy              =    -746.17419233 Ry
     estimated scf accuracy    <       0.28529052 Ry

     iteration #  2     ecut=   110.00 Ry     beta= 0.20
     Davidson diagonalization with overlap

---- Real-time Memory Report at c_bands before calling an iterative solver
           219 MiB given to the printing process from OS
             0 MiB allocation reported by mallinfo(arena+hblkhd)
        490376 MiB available memory on the node where the printing process lives
------------------
     ethr =  5.71E-04,  avg # of iterations =  2.2

     =================== HUBBARD OCCUPATIONS ===================
     ------------------------ ATOM    1 ------------------------
     Tr[ns(  1)] =   8.74731
     eigenvalues:
       0.721  0.721  0.975  0.979  0.979
     eigenvectors (columns):
       0.000  0.000 -1.000 -0.000  0.000
      -0.419  0.691  0.000 -0.560  0.185
       0.691  0.419  0.000  0.185  0.560
       0.504  0.306 -0.000 -0.253 -0.767
      -0.306  0.504 -0.000  0.767 -0.253
     occupation matrix ns (before diag.):
       0.975 -0.000 -0.000 -0.000 -0.000
      -0.000  0.810 -0.000  0.000 -0.123
      -0.000 -0.000  0.810 -0.123 -0.000
      -0.000  0.000 -0.123  0.889  0.000
      -0.000 -0.123 -0.000  0.000  0.889

     Number of occupied Hubbard levels =    8.7473

     HUBBARD ENERGY =    0.0000  (Ry)

     total cpu time spent up to now is       15.3 secs

     WARNING: integrated charge=    49.99993603, expected=    50.00000000

     total energy              =    -746.20989328 Ry
     estimated scf accuracy    <       0.02237697 Ry

     iteration #  3     ecut=   110.00 Ry     beta= 0.20
     Davidson diagonalization with overlap

---- Real-time Memory Report at c_bands before calling an iterative solver
           219 MiB given to the printing process from OS
             0 MiB allocation reported by mallinfo(arena+hblkhd)
        490377 MiB available memory on the node where the printing process lives
------------------
     ethr =  4.48E-05,  avg # of iterations =  4.8

     =================== HUBBARD OCCUPATIONS ===================
     ------------------------ ATOM    1 ------------------------
     Tr[ns(  1)] =   8.73688
     eigenvalues:
       0.718  0.718  0.975  0.979  0.979
     eigenvectors (columns):
       0.000  0.000 -1.000 -0.000  0.000
      -0.419  0.690  0.000 -0.560  0.185
       0.690  0.419  0.000  0.185  0.560
       0.504  0.306 -0.000 -0.253 -0.767
      -0.306  0.504 -0.000  0.767 -0.253
     occupation matrix ns (before diag.):
       0.975 -0.000 -0.000 -0.000 -0.000
      -0.000  0.809 -0.000  0.000 -0.124
      -0.000 -0.000  0.809 -0.124 -0.000
      -0.000  0.000 -0.124  0.888  0.000
      -0.000 -0.124 -0.000  0.000  0.888

     Number of occupied Hubbard levels =    8.7369

     HUBBARD ENERGY =    0.0000  (Ry)

     total cpu time spent up to now is       19.7 secs

     WARNING: integrated charge=    49.99997911, expected=    50.00000000

     total energy              =    -746.20805565 Ry
     estimated scf accuracy    <       0.01222310 Ry

     iteration #  4     ecut=   110.00 Ry     beta= 0.20
     Davidson diagonalization with overlap

---- Real-time Memory Report at c_bands before calling an iterative solver
           220 MiB given to the printing process from OS
             0 MiB allocation reported by mallinfo(arena+hblkhd)
        490378 MiB available memory on the node where the printing process lives
------------------
     ethr =  2.44E-05,  avg # of iterations =  2.3

     =================== HUBBARD OCCUPATIONS ===================
     ------------------------ ATOM    1 ------------------------
     Tr[ns(  1)] =   8.73405
     eigenvalues:
       0.717  0.717  0.975  0.979  0.979
     eigenvectors (columns):
       0.000  0.000 -1.000 -0.000  0.000
      -0.420  0.689  0.000 -0.561  0.185
       0.689  0.420  0.000  0.185  0.561
       0.504  0.307 -0.000 -0.253 -0.767
      -0.307  0.504 -0.000  0.767 -0.253
     occupation matrix ns (before diag.):
       0.975 -0.000 -0.000 -0.000 -0.000
      -0.000  0.808 -0.000  0.000 -0.125
      -0.000 -0.000  0.808 -0.125 -0.000
      -0.000  0.000 -0.125  0.888  0.000
      -0.000 -0.125 -0.000  0.000  0.888

     Number of occupied Hubbard levels =    8.7341

     HUBBARD ENERGY =    0.0000  (Ry)

     total cpu time spent up to now is       23.9 secs

     WARNING: integrated charge=    49.99999368, expected=    50.00000000

     total energy              =    -746.20883984 Ry
     estimated scf accuracy    <       0.00140822 Ry

     iteration #  5     ecut=   110.00 Ry     beta= 0.20
     Davidson diagonalization with overlap

---- Real-time Memory Report at c_bands before calling an iterative solver
           220 MiB given to the printing process from OS
             0 MiB allocation reported by mallinfo(arena+hblkhd)
        490378 MiB available memory on the node where the printing process lives
------------------
     ethr =  2.82E-06,  avg # of iterations =  4.4

     =================== HUBBARD OCCUPATIONS ===================
     ------------------------ ATOM    1 ------------------------
     Tr[ns(  1)] =   8.75791
     eigenvalues:
       0.723  0.723  0.976  0.979  0.979
     eigenvectors (columns):
       0.000  0.000 -1.000 -0.000  0.000
      -0.419  0.691  0.000 -0.560  0.185
       0.691  0.419  0.000  0.185  0.560
       0.504  0.306 -0.000 -0.253 -0.767
      -0.306  0.504 -0.000  0.767 -0.253
     occupation matrix ns (before diag.):
       0.976 -0.000 -0.000 -0.000 -0.000
      -0.000  0.812 -0.000  0.000 -0.122
      -0.000 -0.000  0.812 -0.122 -0.000
      -0.000  0.000 -0.122  0.890  0.000
      -0.000 -0.122 -0.000  0.000  0.890

     Number of occupied Hubbard levels =    8.7579

     HUBBARD ENERGY =    0.0000  (Ry)

     total cpu time spent up to now is       28.9 secs

     total energy              =    -746.20899906 Ry
     estimated scf accuracy    <       0.00058188 Ry

     iteration #  6     ecut=   110.00 Ry     beta= 0.20
     Davidson diagonalization with overlap

---- Real-time Memory Report at c_bands before calling an iterative solver
           221 MiB given to the printing process from OS
             0 MiB allocation reported by mallinfo(arena+hblkhd)
        490377 MiB available memory on the node where the printing process lives
------------------
     ethr =  1.16E-06,  avg # of iterations =  2.0

     =================== HUBBARD OCCUPATIONS ===================
     ------------------------ ATOM    1 ------------------------
     Tr[ns(  1)] =   8.73937
     eigenvalues:
       0.718  0.718  0.975  0.979  0.979
     eigenvectors (columns):
       0.000  0.000 -1.000 -0.000  0.000
      -0.418  0.691  0.000 -0.560  0.185
       0.691  0.418  0.000  0.185  0.560
       0.504  0.305 -0.000 -0.253 -0.767
      -0.305  0.504 -0.000  0.767 -0.253
     occupation matrix ns (before diag.):
       0.975 -0.000 -0.000 -0.000 -0.000
      -0.000  0.809 -0.000  0.000 -0.124
      -0.000 -0.000  0.809 -0.124 -0.000
      -0.000  0.000 -0.124  0.888  0.000
      -0.000 -0.124 -0.000  0.000  0.888

     Number of occupied Hubbard levels =    8.7394

     HUBBARD ENERGY =    0.0000  (Ry)

     total cpu time spent up to now is       32.8 secs

     total energy              =    -746.20907286 Ry
     estimated scf accuracy    <       0.00003294 Ry

     iteration #  7     ecut=   110.00 Ry     beta= 0.20
     Davidson diagonalization with overlap

---- Real-time Memory Report at c_bands before calling an iterative solver
           221 MiB given to the printing process from OS
             0 MiB allocation reported by mallinfo(arena+hblkhd)
        490376 MiB available memory on the node where the printing process lives
------------------
     ethr =  6.59E-08,  avg # of iterations =  2.4

     =================== HUBBARD OCCUPATIONS ===================
     ------------------------ ATOM    1 ------------------------
     Tr[ns(  1)] =   8.73856
     eigenvalues:
       0.718  0.718  0.975  0.979  0.979
     eigenvectors (columns):
       0.000  0.000 -1.000 -0.000  0.000
      -0.419  0.691  0.000 -0.560  0.185
       0.691  0.419  0.000  0.185  0.560
       0.504  0.306 -0.000 -0.253 -0.767
      -0.306  0.504 -0.000  0.767 -0.253
     occupation matrix ns (before diag.):
       0.975 -0.000 -0.000 -0.000 -0.000
      -0.000  0.809 -0.000  0.000 -0.124
      -0.000 -0.000  0.809 -0.124 -0.000
      -0.000  0.000 -0.124  0.888  0.000
      -0.000 -0.124 -0.000  0.000  0.888

     Number of occupied Hubbard levels =    8.7386

     HUBBARD ENERGY =    0.0000  (Ry)

     total cpu time spent up to now is       37.4 secs

     total energy              =    -746.20907380 Ry
     estimated scf accuracy    <       0.00001467 Ry

     iteration #  8     ecut=   110.00 Ry     beta= 0.20
     Davidson diagonalization with overlap

---- Real-time Memory Report at c_bands before calling an iterative solver
           221 MiB given to the printing process from OS
             0 MiB allocation reported by mallinfo(arena+hblkhd)
        490374 MiB available memory on the node where the printing process lives
------------------
     ethr =  2.93E-08,  avg # of iterations =  2.1

     =================== HUBBARD OCCUPATIONS ===================
     ------------------------ ATOM    1 ------------------------
     Tr[ns(  1)] =   8.74095
     eigenvalues:
       0.719  0.719  0.975  0.979  0.979
     eigenvectors (columns):
       0.000  0.000 -1.000 -0.000  0.000
      -0.419  0.691  0.000 -0.560  0.185
       0.691  0.419  0.000  0.185  0.560
       0.504  0.306 -0.000 -0.253 -0.767
      -0.306  0.504 -0.000  0.767 -0.253
     occupation matrix ns (before diag.):
       0.975 -0.000 -0.000 -0.000 -0.000
      -0.000  0.809 -0.000  0.000 -0.124
      -0.000 -0.000  0.809 -0.124 -0.000
      -0.000  0.000 -0.124  0.888  0.000
      -0.000 -0.124 -0.000  0.000  0.888

     Number of occupied Hubbard levels =    8.7409

     HUBBARD ENERGY =    0.0000  (Ry)

     total cpu time spent up to now is       41.5 secs

     total energy              =    -746.20907689 Ry
     estimated scf accuracy    <       0.00000116 Ry

     iteration #  9     ecut=   110.00 Ry     beta= 0.20
     Davidson diagonalization with overlap

---- Real-time Memory Report at c_bands before calling an iterative solver
           221 MiB given to the printing process from OS
             0 MiB allocation reported by mallinfo(arena+hblkhd)
        490372 MiB available memory on the node where the printing process lives
------------------
     ethr =  2.31E-09,  avg # of iterations =  2.0

     =================== HUBBARD OCCUPATIONS ===================
     ------------------------ ATOM    1 ------------------------
     Tr[ns(  1)] =   8.74065
     eigenvalues:
       0.719  0.719  0.975  0.979  0.979
     eigenvectors (columns):
       0.000  0.000 -1.000 -0.000  0.000
      -0.419  0.691  0.000 -0.560  0.185
       0.691  0.419  0.000  0.185  0.560
       0.504  0.306 -0.000 -0.253 -0.767
      -0.306  0.504 -0.000  0.767 -0.253
     occupation matrix ns (before diag.):
       0.975 -0.000 -0.000 -0.000 -0.000
      -0.000  0.809 -0.000  0.000 -0.124
      -0.000 -0.000  0.809 -0.124 -0.000
      -0.000  0.000 -0.124  0.888  0.000
      -0.000 -0.124 -0.000  0.000  0.888

     Number of occupied Hubbard levels =    8.7406

     HUBBARD ENERGY =    0.0000  (Ry)

     total cpu time spent up to now is       45.8 secs

     total energy              =    -746.20907713 Ry
     estimated scf accuracy    <       0.00000004 Ry

     iteration # 10     ecut=   110.00 Ry     beta= 0.20
     Davidson diagonalization with overlap

---- Real-time Memory Report at c_bands before calling an iterative solver
           221 MiB given to the printing process from OS
             0 MiB allocation reported by mallinfo(arena+hblkhd)
        490372 MiB available memory on the node where the printing process lives
------------------
     ethr =  7.66E-11,  avg # of iterations =  3.0

     =================== HUBBARD OCCUPATIONS ===================
     ------------------------ ATOM    1 ------------------------
     Tr[ns(  1)] =   8.74074
     eigenvalues:
       0.719  0.719  0.975  0.979  0.979
     eigenvectors (columns):
       0.000  0.000 -1.000 -0.000  0.000
      -0.419  0.691  0.000 -0.560  0.185
       0.691  0.419  0.000  0.185  0.560
       0.504  0.306 -0.000 -0.253 -0.767
      -0.306  0.504 -0.000  0.767 -0.253
     occupation matrix ns (before diag.):
       0.975 -0.000 -0.000 -0.000 -0.000
      -0.000  0.809 -0.000  0.000 -0.124
      -0.000 -0.000  0.809 -0.124 -0.000
      -0.000  0.000 -0.124  0.888  0.000
      -0.000 -0.124 -0.000  0.000  0.888

     Number of occupied Hubbard levels =    8.7407

     HUBBARD ENERGY =    0.0000  (Ry)

     total cpu time spent up to now is       50.9 secs

     total energy              =    -746.20907714 Ry
     estimated scf accuracy    <       0.00000003 Ry

     iteration # 11     ecut=   110.00 Ry     beta= 0.20
     Davidson diagonalization with overlap

---- Real-time Memory Report at c_bands before calling an iterative solver
           222 MiB given to the printing process from OS
             0 MiB allocation reported by mallinfo(arena+hblkhd)
        490370 MiB available memory on the node where the printing process lives
------------------
     ethr =  5.22E-11,  avg # of iterations =  2.0

     =================== HUBBARD OCCUPATIONS ===================
     ------------------------ ATOM    1 ------------------------
     Tr[ns(  1)] =   8.74060
     eigenvalues:
       0.719  0.719  0.975  0.979  0.979
     eigenvectors (columns):
       0.000  0.000 -1.000 -0.000  0.000
      -0.419  0.691  0.000 -0.560  0.185
       0.691  0.419  0.000  0.185  0.560
       0.504  0.306 -0.000 -0.253 -0.767
      -0.306  0.504 -0.000  0.767 -0.253
     occupation matrix ns (before diag.):
       0.975 -0.000 -0.000 -0.000 -0.000
      -0.000  0.809 -0.000  0.000 -0.124
      -0.000 -0.000  0.809 -0.124 -0.000
      -0.000  0.000 -0.124  0.888  0.000
      -0.000 -0.124 -0.000  0.000  0.888

     Number of occupied Hubbard levels =    8.7406

     HUBBARD ENERGY =    0.0000  (Ry)

     total cpu time spent up to now is       55.1 secs

     End of self-consistent calculation

          k = 0.0000 0.0000 0.0000 (  7969 PWs)   bands (ev):

   -85.6064 -39.7506 -39.7506 -39.7231 -34.7031 -34.7031 -34.7018 -34.7018
   -34.6961 -34.6961 -34.6916 -34.6913 -34.6906 -34.6906  -1.6821   1.1165
     6.7130   7.8160   7.8161  10.0988  10.0988  11.2491  12.9490  12.9490
    14.4835  15.0006  15.0006  17.4719  17.9613  21.3102

     occupation numbers 
     1.0000   1.0000   1.0000   1.0000   1.0000   1.0000   1.0000   1.0000
     1.0000   1.0000   1.0000   1.0000   1.0000   1.0000   1.0000   1.0000
     1.0000   1.0000   1.0000   1.0000   1.0000   1.0000   1.0000   1.0000
    -0.0000  -0.0000  -0.0000  -0.0000  -0.0000  -0.0000

          k = 0.0000 0.0000 0.0682 (  7963 PWs)   bands (ev):

   -85.6064 -39.7506 -39.7506 -39.7231 -34.7031 -34.7031 -34.7018 -34.7018
   -34.6960 -34.6960 -34.6917 -34.6913 -34.6908 -34.6908  -1.6453   1.0234
     6.8426   7.8221   7.8221  10.0955  10.0955  11.2437  12.8849  12.8849
    14.2369  15.0946  15.0947  17.5377  18.2123  21.2855

     occupation numbers 
     1.0000   1.0000   1.0000   1.0000   1.0000   1.0000   1.0000   1.0000
     1.0000   1.0000   1.0000   1.0000   1.0000   1.0000   1.0000   1.0000
     1.0000   1.0000   1.0000   1.0000   1.0000   1.0000   1.0000   1.0000
    -0.0000  -0.0000  -0.0000  -0.0000  -0.0000  -0.0000

          k = 0.0000 0.0000 0.1363 (  7916 PWs)   bands (ev):

   -85.6064 -39.7506 -39.7506 -39.7231 -34.7031 -34.7031 -34.7018 -34.7018
   -34.6957 -34.6957 -34.6918 -34.6912 -34.6911 -34.6911  -1.5361   0.7727
     7.1984   7.8384   7.8384  10.0869  10.0869  11.2229  12.7308  12.7308
    13.6600  15.3342  15.3342  17.7485  18.7807  21.2052

     occupation numbers 
     1.0000   1.0000   1.0000   1.0000   1.0000   1.0000   1.0000   1.0000
     1.0000   1.0000   1.0000   1.0000   1.0000   1.0000   1.0000   1.0000
     1.0000   1.0000   1.0000   1.0000   1.0000   1.0000   1.0000   1.0000
     1.0197  -0.0000  -0.0000  -0.0000  -0.0000  -0.0000

          k = 0.0000 0.0000 0.2045 (  7928 PWs)   bands (ev):

   -85.6064 -39.7506 -39.7506 -39.7231 -34.7031 -34.7031 -34.7017 -34.7017
   -34.6952 -34.6952 -34.6919 -34.6916 -34.6916 -34.6911  -1.3593   0.4281
     7.7004   7.8601   7.8602  10.0764  10.0765  11.1679  12.5555  12.5556
    12.9968  15.6344  15.6344  18.0826  19.4212  21.0641

     occupation numbers 
     1.0000   1.0000   1.0000   1.0000   1.0000   1.0000   1.0000   1.0000
     1.0000   1.0000   1.0000   1.0000   1.0000   1.0000   1.0000   1.0000
     1.0000   1.0000   1.0000   1.0000   1.0000   1.0000   1.0000   1.0000
     1.0000  -0.0000  -0.0000  -0.0000  -0.0000  -0.0000

          k = 0.0000 0.0000 0.2726 (  7922 PWs)   bands (ev):

   -85.6064 -39.7506 -39.7506 -39.7231 -34.7031 -34.7031 -34.7016 -34.7016
   -34.6946 -34.6946 -34.6923 -34.6923 -34.6920 -34.6910  -1.1270   0.0554
     7.8805   7.8805   8.2406  10.0677  10.0677  11.0422  12.4118  12.4118
    12.4373  15.9097  15.9098  18.4708  19.9742  20.8916

     occupation numbers 
     1.0000   1.0000   1.0000   1.0000   1.0000   1.0000   1.0000   1.0000
     1.0000   1.0000   1.0000   1.0000   1.0000   1.0000   1.0000   1.0000
     1.0000   1.0000   1.0000   1.0000   1.0000   1.0000   1.0000   1.0000
     1.0000  -0.0000  -0.0000  -0.0000  -0.0000  -0.0000

          k = 0.0000 0.0000 0.3408 (  7952 PWs)   bands (ev):

   -85.6064 -39.7506 -39.7506 -39.7231 -34.7031 -34.7031 -34.7016 -34.7016
   -34.6939 -34.6939 -34.6931 -34.6931 -34.6920 -34.6909  -0.8885  -0.2613
     7.8927   7.8927   8.6425  10.0629  10.0629  10.8677  12.1391  12.3320
    12.3320  16.0775  16.0776  18.7653  20.3043  20.7669

     occupation numbers 
     1.0000   1.0000   1.0000   1.0000   1.0000   1.0000   1.0000   1.0000
     1.0000   1.0000   1.0000   1.0000   1.0000   1.0000   1.0000   1.0000
     1.0000   1.0000   1.0000   1.0000   1.0000   1.0000   1.0000   1.0000
     1.0000  -0.0000  -0.0000  -0.0000  -0.0000  -0.0000

          k = 0.0000 0.0896 0.0000 (  7955 PWs)   bands (ev):

   -85.6064 -39.7512 -39.7508 -39.7230 -34.7030 -34.7030 -34.7019 -34.7018
   -34.6960 -34.6960 -34.6916 -34.6913 -34.6908 -34.6907  -1.6175   1.0902
     6.7957   7.8554   7.8607  10.0126  10.0536  11.1371  12.6439  12.8613
    14.0040  15.0631  15.2641  17.9061  18.3635  21.0511

     occupation numbers 
     1.0000   1.0000   1.0000   1.0000   1.0000   1.0000   1.0000   1.0000
     1.0000   1.0000   1.0000   1.0000   1.0000   1.0000   1.0000   1.0000
     1.0000   1.0000   1.0000   1.0000   1.0000   1.0000   1.0000   1.0000
    -0.0282  -0.0000  -0.0000  -0.0000  -0.0000  -0.0000

          k = 0.0000 0.0896 0.0682 (  7941 PWs)   bands (ev):

   -85.6064 -39.7512 -39.7508 -39.7230 -34.7031 -34.7030 -34.7019 -34.7018
   -34.6960 -34.6958 -34.6916 -34.6913 -34.6911 -34.6907  -1.5815   1.0035
     6.9001   7.8469   7.8939   9.9916  10.0601  11.1296  12.4412  12.9678
    14.1525  14.8837  15.2134  17.9872  18.5518  20.8990

     occupation numbers 
     1.0000   1.0000   1.0000   1.0000   1.0000   1.0000   1.0000   1.0000
     1.0000   1.0000   1.0000   1.0000   1.0000   1.0000   1.0000   1.0000
     1.0000   1.0000   1.0000   1.0000   1.0000   1.0000   1.0000   1.0000
    -0.0002  -0.0000  -0.0000  -0.0000  -0.0000  -0.0000

          k = 0.0000 0.0896 0.1363 (  7928 PWs)   bands (ev):

   -85.6064 -39.7512 -39.7508 -39.7230 -34.7031 -34.7029 -34.7018 -34.7018
   -34.6958 -34.6954 -34.6918 -34.6916 -34.6911 -34.6909  -1.4740   0.7663
     7.1848   7.8518   7.9620   9.9649  10.0562  11.1202  12.2010  12.9382
    13.9325  14.9105  15.3135  18.2000  18.9426  20.8099

     occupation numbers 
     1.0000   1.0000   1.0000   1.0000   1.0000   1.0000   1.0000   1.0000
     1.0000   1.0000   1.0000   1.0000   1.0000   1.0000   1.0000   1.0000
     1.0000   1.0000   1.0000   1.0000   1.0000   1.0000   1.0000   1.0000
     0.0025  -0.0000  -0.0000  -0.0000  -0.0000  -0.0000

          k = 0.0000 0.0896 0.2045 (  7937 PWs)   bands (ev):

   -85.6064 -39.7512 -39.7508 -39.7231 -34.7031 -34.7030 -34.7018 -34.7017
   -34.6955 -34.6949 -34.6922 -34.6918 -34.6913 -34.6910  -1.2997   0.4360
     7.5241   7.8688   8.1036   9.9429  10.0438  11.1063  11.9375  12.7879
    13.5053  15.1313  15.5412  18.5034  19.2914  20.8609

     occupation numbers 
     1.0000   1.0000   1.0000   1.0000   1.0000   1.0000   1.0000   1.0000
     1.0000   1.0000   1.0000   1.0000   1.0000   1.0000   1.0000   1.0000
     1.0000   1.0000   1.0000   1.0000   1.0000   1.0000   1.0000   1.0000
     1.0001  -0.0000  -0.0000  -0.0000  -0.0000  -0.0000

          k = 0.0000 0.0896 0.2726 (  7927 PWs)   bands (ev):

   -85.6064 -39.7512 -39.7508 -39.7231 -34.7031 -34.7030 -34.7017 -34.7017
   -34.6949 -34.6942 -34.6929 -34.6919 -34.6919 -34.6910  -1.0702   0.0746
     7.7279   7.8930   8.3924   9.9348  10.0263  11.0832  11.6459  12.6011
    13.1668  15.4494  15.6883  18.8259  19.5324  21.0135

     occupation numbers 
     1.0000   1.0000   1.0000   1.0000   1.0000   1.0000   1.0000   1.0000
     1.0000   1.0000   1.0000   1.0000   1.0000   1.0000   1.0000   1.0000
     1.0000   1.0000   1.0000   1.0000   1.0000   1.0000   1.0000   1.0000
     1.0000  -0.0000  -0.0000  -0.0000  -0.0000  -0.0000

          k = 0.0000 0.0896 0.3408 (  7948 PWs)   bands (ev):

   -85.6064 -39.7512 -39.7508 -39.7231 -34.7031 -34.7031 -34.7017 -34.7016
   -34.6943 -34.6938 -34.6933 -34.6926 -34.6919 -34.6909  -0.8312  -0.2385
     7.7852   7.9170   8.6766   9.9420  10.0080  11.0477  11.4212  12.4448
    13.0336  15.6529  15.7652  19.0781  19.7394  21.0810

     occupation numbers 
     1.0000   1.0000   1.0000   1.0000   1.0000   1.0000   1.0000   1.0000
     1.0000   1.0000   1.0000   1.0000   1.0000   1.0000   1.0000   1.0000
     1.0000   1.0000   1.0000   1.0000   1.0000   1.0000   1.0000   1.0000
     1.0000  -0.0000  -0.0000  -0.0000  -0.0000  -0.0000

          k = 0.0000 0.1793 0.0000 (  7937 PWs)   bands (ev):

   -85.6064 -39.7527 -39.7512 -39.7229 -34.7029 -34.7028 -34.7021 -34.7018
   -34.6958 -34.6955 -34.6916 -34.6915 -34.6912 -34.6909  -1.4291   1.0153
     7.0355   7.9651   7.9936   9.6768   9.9476  10.8178  12.1513  12.6029
    13.2960  15.2496  15.4633  18.7362  19.2018  20.7775

     occupation numbers 
     1.0000   1.0000   1.0000   1.0000   1.0000   1.0000   1.0000   1.0000
     1.0000   1.0000   1.0000   1.0000   1.0000   1.0000   1.0000   1.0000
     1.0000   1.0000   1.0000   1.0000   1.0000   1.0000   1.0000   1.0000
     1.0000  -0.0000  -0.0000  -0.0000  -0.0000  -0.0000

          k = 0.0000 0.1793 0.0682 (  7937 PWs)   bands (ev):

   -85.6064 -39.7527 -39.7512 -39.7229 -34.7030 -34.7027 -34.7021 -34.7018
   -34.6959 -34.6953 -34.6918 -34.6915 -34.6912 -34.6907  -1.3969   0.9501
     7.0487   7.9396   8.0908   9.5896   9.9704  10.7935  12.0343  12.8031
    13.7622  14.8996  15.1786  18.7285  19.0515  20.8973

     occupation numbers 
     1.0000   1.0000   1.0000   1.0000   1.0000   1.0000   1.0000   1.0000
     1.0000   1.0000   1.0000   1.0000   1.0000   1.0000   1.0000   1.0000
     1.0000   1.0000   1.0000   1.0000   1.0000   1.0000   1.0000   1.0000
     0.9710  -0.0000  -0.0000  -0.0000  -0.0000  -0.0000

          k = 0.0000 0.1793 0.1363 (  7940 PWs)   bands (ev):

   -85.6064 -39.7527 -39.7512 -39.7230 -34.7030 -34.7027 -34.7021 -34.7018
   -34.6958 -34.6950 -34.6923 -34.6916 -34.6911 -34.6907  -1.2963   0.7527
     7.1666   7.9290   8.2414   9.5048   9.9740  10.7828  11.9591  12.9598
    14.0512  14.6597  14.8722  18.6343  19.0773  21.2091

     occupation numbers 
     1.0000   1.0000   1.0000   1.0000   1.0000   1.0000   1.0000   1.0000
     1.0000   1.0000   1.0000   1.0000   1.0000   1.0000   1.0000   1.0000
     1.0000   1.0000   1.0000   1.0000   1.0000   1.0000   1.0000   1.0000
    -0.0102  -0.0000  -0.0000  -0.0000  -0.0000  -0.0000

          k = 0.0000 0.1793 0.2045 (  7933 PWs)   bands (ev):

   -85.6064 -39.7527 -39.7512 -39.7230 -34.7031 -34.7027 -34.7020 -34.7018
   -34.6955 -34.6945 -34.6927 -34.6917 -34.6910 -34.6910  -1.1316   0.4650
     7.3354   7.9360   8.4042   9.4696   9.9593  10.7805  11.9042  12.9641
    13.9067  14.6561  14.8522  18.4322  19.3654  21.5487

     occupation numbers 
     1.0000   1.0000   1.0000   1.0000   1.0000   1.0000   1.0000   1.0000
     1.0000   1.0000   1.0000   1.0000   1.0000   1.0000   1.0000   1.0000
     1.0000   1.0000   1.0000   1.0000   1.0000   1.0000   1.0000   1.0000
     0.0828  -0.0000  -0.0000  -0.0000  -0.0000  -0.0000

          k = 0.0000 0.1793 0.2726 (  7927 PWs)   bands (ev):

   -85.6064 -39.7527 -39.7512 -39.7230 -34.7030 -34.7028 -34.7019 -34.7017
   -34.6951 -34.6942 -34.6931 -34.6917 -34.6915 -34.6909  -0.9125   0.1373
     7.4836   7.9587   8.5473   9.5080   9.9305  10.7857  11.8191  12.8131
    13.6352  14.8630  14.8917  18.3913  19.7257  21.6780

     occupation numbers 
     1.0000   1.0000   1.0000   1.0000   1.0000   1.0000   1.0000   1.0000
     1.0000   1.0000   1.0000   1.0000   1.0000   1.0000   1.0000   1.0000
     1.0000   1.0000   1.0000   1.0000   1.0000   1.0000   1.0000   1.0000
     1.0109  -0.0000  -0.0000  -0.0000  -0.0000  -0.0000

          k = 0.0000 0.1793 0.3408 (  7934 PWs)   bands (ev):

   -85.6064 -39.7527 -39.7512 -39.7230 -34.7030 -34.7029 -34.7019 -34.7016
   -34.6946 -34.6943 -34.6930 -34.6921 -34.6917 -34.6909  -0.6734  -0.1662
     7.5563   7.9912   8.6649   9.5772   9.8940  10.8077  11.6687  12.6145
    13.5312  14.7078  15.2416  18.5980  20.0220  21.5742

     occupation numbers 
     1.0000   1.0000   1.0000   1.0000   1.0000   1.0000   1.0000   1.0000
     1.0000   1.0000   1.0000   1.0000   1.0000   1.0000   1.0000   1.0000
     1.0000   1.0000   1.0000   1.0000   1.0000   1.0000   1.0000   1.0000
     1.0002  -0.0000  -0.0000  -0.0000  -0.0000  -0.0000

          k = 0.0000 0.2689 0.0000 (  7926 PWs)   bands (ev):

   -85.6064 -39.7548 -39.7518 -39.7228 -34.7026 -34.7026 -34.7023 -34.7018
   -34.6955 -34.6950 -34.6923 -34.6914 -34.6911 -34.6911  -1.1338   0.9012
     7.3977   8.1169   8.1978   9.0089   9.8524  10.5248  11.8061  12.2098
    12.5969  15.4491  15.5251  18.9603  19.8843  21.3840

     occupation numbers 
     1.0000   1.0000   1.0000   1.0000   1.0000   1.0000   1.0000   1.0000
     1.0000   1.0000   1.0000   1.0000   1.0000   1.0000   1.0000   1.0000
     1.0000   1.0000   1.0000   1.0000   1.0000   1.0000   1.0000   1.0000
     1.0000  -0.0000  -0.0000  -0.0000  -0.0000  -0.0000

          k = 0.0000 0.2689 0.0682 (  7934 PWs)   bands (ev):

   -85.6064 -39.7548 -39.7518 -39.7228 -34.7028 -34.7025 -34.7023 -34.7018
   -34.6957 -34.6949 -34.6924 -34.6914 -34.6911 -34.6908  -1.1109   0.8713
     7.2478   8.0718   8.4194   8.8231   9.9011  10.5264  11.8820  12.3911
    13.1348  14.9969  15.1487  18.6493  19.5793  21.5933

     occupation numbers 
     1.0000   1.0000   1.0000   1.0000   1.0000   1.0000   1.0000   1.0000
     1.0000   1.0000   1.0000   1.0000   1.0000   1.0000   1.0000   1.0000
     1.0000   1.0000   1.0000   1.0000   1.0000   1.0000   1.0000   1.0000
     1.0000  -0.0000  -0.0000  -0.0000  -0.0000  -0.0000

          k = 0.0000 0.2689 0.1363 (  7935 PWs)   bands (ev):

   -85.6064 -39.7548 -39.7518 -39.7228 -34.7029 -34.7024 -34.7024 -34.7018
   -34.6957 -34.6948 -34.6926 -34.6915 -34.6910 -34.6907  -1.0257   0.7355
     7.1772   8.0396   8.5196   8.8053   9.9243  10.5466  12.0303  12.6164
    13.6209  14.4746  14.7704  18.2364  19.4957  21.5963

     occupation numbers 
     1.0000   1.0000   1.0000   1.0000   1.0000   1.0000   1.0000   1.0000
     1.0000   1.0000   1.0000   1.0000   1.0000   1.0000   1.0000   1.0000
     1.0000   1.0000   1.0000   1.0000   1.0000   1.0000   1.0000   1.0000
     1.0072  -0.0000  -0.0000  -0.0000  -0.0000  -0.0000

          k = 0.0000 0.2689 0.2045 (  7934 PWs)   bands (ev):

   -85.6064 -39.7548 -39.7518 -39.7228 -34.7029 -34.7025 -34.7023 -34.7017
   -34.6955 -34.6947 -34.6928 -34.6915 -34.6909 -34.6909  -0.8820   0.5159
     7.1984   8.0281   8.3683   9.0557   9.9195  10.5699  12.2261  12.8021
    13.8684  14.0464  14.5098  17.8945  19.5968  21.5999

     occupation numbers 
     1.0000   1.0000   1.0000   1.0000   1.0000   1.0000   1.0000   1.0000
     1.0000   1.0000   1.0000   1.0000   1.0000   1.0000   1.0000   1.0000
     1.0000   1.0000   1.0000   1.0000   1.0000   1.0000   1.0000   1.0000
     0.3016  -0.0116  -0.0000  -0.0000  -0.0000  -0.0000

          k = 0.0000 0.2689 0.2726 (  7928 PWs)   bands (ev):

   -85.6064 -39.7548 -39.7518 -39.7228 -34.7029 -34.7026 -34.7022 -34.7017
   -34.6952 -34.6946 -34.6929 -34.6915 -34.6912 -34.6908  -0.6873   0.2458
     7.2769   8.0400   8.2536   9.2779   9.8901  10.5895  12.3774  12.8225
    13.4395  14.1703  14.5052  17.8200  19.7824  21.6913

     occupation numbers 
     1.0000   1.0000   1.0000   1.0000   1.0000   1.0000   1.0000   1.0000
     1.0000   1.0000   1.0000   1.0000   1.0000   1.0000   1.0000   1.0000
     1.0000   1.0000   1.0000   1.0000   1.0000   1.0000   1.0000   1.0000
     1.0000  -0.0001  -0.0000  -0.0000  -0.0000  -0.0000

          k = 0.0000 0.2689 0.3408 (  7936 PWs)   bands (ev):

   -85.6064 -39.7548 -39.7518 -39.7228 -34.7028 -34.7027 -34.7022 -34.7017
   -34.6948 -34.6947 -34.6929 -34.6917 -34.6915 -34.6908  -0.4591  -0.0342
     7.3508   8.0728   8.2479   9.4117   9.8429  10.6096  12.3009  12.6691
    13.0583  14.3254  14.7603  18.0560  19.9715  21.8391

     occupation numbers 
     1.0000   1.0000   1.0000   1.0000   1.0000   1.0000   1.0000   1.0000
     1.0000   1.0000   1.0000   1.0000   1.0000   1.0000   1.0000   1.0000
     1.0000   1.0000   1.0000   1.0000   1.0000   1.0000   1.0000   1.0000
     1.0000  -0.0000  -0.0000  -0.0000  -0.0000  -0.0000

          k = 0.0000 0.3585 0.0000 (  7942 PWs)   bands (ev):

   -85.6063 -39.7571 -39.7525 -39.7227 -34.7028 -34.7024 -34.7020 -34.7018
   -34.6952 -34.6949 -34.6927 -34.6914 -34.6912 -34.6910  -0.7628   0.7557
     7.6929   8.1235   8.2618   8.7501   9.8531  10.3449  11.4365  11.7415
    12.0290  15.1256  15.8172  18.7949  20.2162  21.3783

     occupation numbers 
     1.0000   1.0000   1.0000   1.0000   1.0000   1.0000   1.0000   1.0000
     1.0000   1.0000   1.0000   1.0000   1.0000   1.0000   1.0000   1.0000
     1.0000   1.0000   1.0000   1.0000   1.0000   1.0000   1.0000   1.0000
     1.0000  -0.0000  -0.0000  -0.0000  -0.0000  -0.0000

          k = 0.0000 0.3585 0.0682 (  7934 PWs)   bands (ev):

   -85.6063 -39.7571 -39.7525 -39.7227 -34.7028 -34.7025 -34.7020 -34.7017
   -34.6954 -34.6950 -34.6926 -34.6913 -34.6911 -34.6910  -0.7576   0.7683
     7.3801   8.0893   8.2004   8.8880   9.9301  10.3769  11.6991  11.8647
    12.4927  14.5785  15.4799  18.5380  19.6242  22.0940

     occupation numbers 
     1.0000   1.0000   1.0000   1.0000   1.0000   1.0000   1.0000   1.0000
     1.0000   1.0000   1.0000   1.0000   1.0000   1.0000   1.0000   1.0000
     1.0000   1.0000   1.0000   1.0000   1.0000   1.0000   1.0000   1.0000
     1.0000  -0.0000  -0.0000  -0.0000  -0.0000  -0.0000

          k = 0.0000 0.3585 0.1363 (  7947 PWs)   bands (ev):

   -85.6063 -39.7571 -39.7525 -39.7227 -34.7028 -34.7027 -34.7021 -34.7017
   -34.6955 -34.6951 -34.6926 -34.6913 -34.6909 -34.6909  -0.6997   0.7066
     7.1563   7.9536   8.1431   9.1159   9.9844  10.4207  11.9649  12.0657
    12.9971  14.0754  15.0639  18.1151  19.3203  22.2593

     occupation numbers 
     1.0000   1.0000   1.0000   1.0000   1.0000   1.0000   1.0000   1.0000
     1.0000   1.0000   1.0000   1.0000   1.0000   1.0000   1.0000   1.0000
     1.0000   1.0000   1.0000   1.0000   1.0000   1.0000   1.0000   1.0000
     1.0000  -0.0049  -0.0000  -0.0000  -0.0000  -0.0000

          k = 0.0000 0.3585 0.2045 (  7936 PWs)   bands (ev):

   -85.6063 -39.7571 -39.7525 -39.7227 -34.7027 -34.7027 -34.7022 -34.7017
   -34.6954 -34.6951 -34.6927 -34.6913 -34.6908 -34.6908  -0.5932   0.5752
     7.0520   7.8124   8.1051   9.3218  10.0047  10.4666  12.1545  12.2966
    13.4183  13.7103  14.6810  17.7408  19.2471  22.2863

     occupation numbers 
     1.0000   1.0000   1.0000   1.0000   1.0000   1.0000   1.0000   1.0000
     1.0000   1.0000   1.0000   1.0000   1.0000   1.0000   1.0000   1.0000
     1.0000   1.0000   1.0000   1.0000   1.0000   1.0000   1.0000   1.0000
     1.0000   1.0354  -0.0000  -0.0000  -0.0000  -0.0000

          k = 0.0000 0.3585 0.2726 (  7924 PWs)   bands (ev):

   -85.6063 -39.7571 -39.7525 -39.7227 -34.7028 -34.7026 -34.7023 -34.7017
   -34.6953 -34.6950 -34.6928 -34.6913 -34.6910 -34.6907  -0.4444   0.3890
     7.0636   7.7095   8.0945   9.4663   9.9917  10.5083  12.1190  12.4586
    13.2989  13.9445  14.4588  17.6480  19.3011  22.3040

     occupation numbers 
     1.0000   1.0000   1.0000   1.0000   1.0000   1.0000   1.0000   1.0000
     1.0000   1.0000   1.0000   1.0000   1.0000   1.0000   1.0000   1.0000
     1.0000   1.0000   1.0000   1.0000   1.0000   1.0000   1.0000   1.0000
     1.0000  -0.0179  -0.0000  -0.0000  -0.0000  -0.0000

          k = 0.0000 0.3585 0.3408 (  7931 PWs)   bands (ev):

   -85.6063 -39.7571 -39.7525 -39.7227 -34.7027 -34.7026 -34.7024 -34.7017
   -34.6950 -34.6949 -34.6930 -34.6914 -34.6913 -34.6906  -0.2623   0.1700
     7.1576   7.6822   8.1139   9.5347   9.9509  10.5466  11.8735  12.4444
    12.9066  14.4471  14.5113  17.8768  19.4340  22.2872

     occupation numbers 
     1.0000   1.0000   1.0000   1.0000   1.0000   1.0000   1.0000   1.0000
     1.0000   1.0000   1.0000   1.0000   1.0000   1.0000   1.0000   1.0000
     1.0000   1.0000   1.0000   1.0000   1.0000   1.0000   1.0000   1.0000
     1.0000  -0.0000  -0.0000  -0.0000  -0.0000  -0.0000

          k = 0.0000 0.4482 0.0000 (  7934 PWs)   bands (ev):

   -85.6063 -39.7590 -39.7530 -39.7225 -34.7032 -34.7021 -34.7018 -34.7017
   -34.6952 -34.6949 -34.6925 -34.6917 -34.6912 -34.6909  -0.3639   0.5771
     7.2091   8.3526   8.3662   9.2429  10.0108  10.1686  11.0186  11.2510
    11.5584  14.6737  16.0542  18.8097  20.0273  20.9202

     occupation numbers 
     1.0000   1.0000   1.0000   1.0000   1.0000   1.0000   1.0000   1.0000
     1.0000   1.0000   1.0000   1.0000   1.0000   1.0000   1.0000   1.0000
     1.0000   1.0000   1.0000   1.0000   1.0000   1.0000   1.0000   1.0000
     1.0000  -0.0000  -0.0000  -0.0000  -0.0000  -0.0000

          k = 0.0000 0.4482 0.0682 (  7945 PWs)   bands (ev):

   -85.6063 -39.7590 -39.7530 -39.7225 -34.7031 -34.7023 -34.7018 -34.7017
   -34.6953 -34.6951 -34.6924 -34.6914 -34.6912 -34.6909  -0.3850   0.6280
     7.0481   8.0743   8.2904   9.4351  10.1045  10.2533  11.3008  11.3145
    11.8658  14.2797  15.7791  18.6144  19.4020  21.7865

     occupation numbers 
     1.0000   1.0000   1.0000   1.0000   1.0000   1.0000   1.0000   1.0000
     1.0000   1.0000   1.0000   1.0000   1.0000   1.0000   1.0000   1.0000
[...]
   -34.6956 -34.6943 -34.6928 -34.6918 -34.6911 -34.6908  -0.0897   0.4055
     7.0648   8.2923   8.7802   9.2222   9.7699  10.1493  10.7351  11.0427
    11.6610  14.9017  15.7238  18.6409  20.0854  20.7640

     occupation numbers 
     1.0000   1.0000   1.0000   1.0000   1.0000   1.0000   1.0000   1.0000
     1.0000   1.0000   1.0000   1.0000   1.0000   1.0000   1.0000   1.0000
     1.0000   1.0000   1.0000   1.0000   1.0000   1.0000   1.0000   1.0000
     1.0000  -0.0000  -0.0000  -0.0000  -0.0000  -0.0000

          k =-0.0776 0.4930-0.1363 (  7937 PWs)   bands (ev):

   -85.6063 -39.7595 -39.7535 -39.7225 -34.7031 -34.7022 -34.7018 -34.7016
   -34.6953 -34.6942 -34.6932 -34.6919 -34.6910 -34.6908  -0.0076   0.3301
     7.0551   8.2224   8.7258   9.0847   9.8170  10.1989  10.7687  11.1571
    11.6570  15.2511  15.6071  18.4833  19.7607  21.3642

     occupation numbers 
     1.0000   1.0000   1.0000   1.0000   1.0000   1.0000   1.0000   1.0000
     1.0000   1.0000   1.0000   1.0000   1.0000   1.0000   1.0000   1.0000
     1.0000   1.0000   1.0000   1.0000   1.0000   1.0000   1.0000   1.0000
     1.0000  -0.0000  -0.0000  -0.0000  -0.0000  -0.0000

          k =-0.0776 0.4930-0.2045 (  7934 PWs)   bands (ev):

   -85.6063 -39.7595 -39.7535 -39.7225 -34.7029 -34.7023 -34.7018 -34.7017
   -34.6950 -34.6943 -34.6936 -34.6919 -34.6909 -34.6907   0.0760   0.2684
     6.9752   8.0751   8.5315   9.0729   9.9178  10.3183  10.8065  11.3361
    11.8310  14.9411  15.9645  18.2641  19.6246  22.1580

     occupation numbers 
     1.0000   1.0000   1.0000   1.0000   1.0000   1.0000   1.0000   1.0000
     1.0000   1.0000   1.0000   1.0000   1.0000   1.0000   1.0000   1.0000
     1.0000   1.0000   1.0000   1.0000   1.0000   1.0000   1.0000   1.0000
     1.0000  -0.0000  -0.0000  -0.0000  -0.0000  -0.0000

          k =-0.0776 0.4930-0.2726 (  7942 PWs)   bands (ev):

   -85.6063 -39.7595 -39.7535 -39.7225 -34.7027 -34.7024 -34.7020 -34.7017
   -34.6949 -34.6942 -34.6940 -34.6917 -34.6909 -34.6906   0.0870   0.2880
     6.8496   7.8988   8.3592   9.1557  10.0257  10.4297  10.8212  11.5263
    12.1016  14.6664  15.9961  18.3079  19.4984  21.5036

     occupation numbers 
     1.0000   1.0000   1.0000   1.0000   1.0000   1.0000   1.0000   1.0000
     1.0000   1.0000   1.0000   1.0000   1.0000   1.0000   1.0000   1.0000
     1.0000   1.0000   1.0000   1.0000   1.0000   1.0000   1.0000   1.0000
     1.0000  -0.0000  -0.0000  -0.0000  -0.0000  -0.0000

          k =-0.0776 0.4930-0.3408 (  7935 PWs)   bands (ev):

   -85.6063 -39.7595 -39.7535 -39.7225 -34.7026 -34.7025 -34.7021 -34.7016
   -34.6950 -34.6944 -34.6939 -34.6915 -34.6909 -34.6905   0.0242   0.3808
     6.7221   7.7529   8.2498   9.2955  10.1071  10.5275  10.8192  11.6777
    12.2990  14.6401  15.6485  18.5020  19.1852  21.2790

     occupation numbers 
     1.0000   1.0000   1.0000   1.0000   1.0000   1.0000   1.0000   1.0000
     1.0000   1.0000   1.0000   1.0000   1.0000   1.0000   1.0000   1.0000
     1.0000   1.0000   1.0000   1.0000   1.0000   1.0000   1.0000   1.0000
     1.0000  -0.0000  -0.0000  -0.0000  -0.0000  -0.0000

          k =-0.1553 0.3585-0.0682 (  7927 PWs)   bands (ev):

   -85.6063 -39.7573 -39.7533 -39.7226 -34.7028 -34.7024 -34.7022 -34.7015
   -34.6957 -34.6941 -34.6931 -34.6915 -34.6912 -34.6910  -0.5858   0.6697
     7.8790   8.0960   8.2682   8.8086   9.2653  10.5733  10.9015  11.5341
    12.8300  14.8258  15.4680  18.6870  20.8498  21.4100

     occupation numbers 
     1.0000   1.0000   1.0000   1.0000   1.0000   1.0000   1.0000   1.0000
     1.0000   1.0000   1.0000   1.0000   1.0000   1.0000   1.0000   1.0000
     1.0000   1.0000   1.0000   1.0000   1.0000   1.0000   1.0000   1.0000
     1.0000  -0.0000  -0.0000  -0.0000  -0.0000  -0.0000

          k =-0.1553 0.3585-0.1363 (  7917 PWs)   bands (ev):

   -85.6063 -39.7573 -39.7533 -39.7226 -34.7027 -34.7025 -34.7021 -34.7016
   -34.6954 -34.6943 -34.6930 -34.6917 -34.6912 -34.6908  -0.5042   0.5694
     7.7162   7.9362   8.4084   9.0071   9.2928  10.6252  10.9071  11.6451
    12.5452  14.7884  15.6648  18.9928  20.7633  21.0748

     occupation numbers 
     1.0000   1.0000   1.0000   1.0000   1.0000   1.0000   1.0000   1.0000
     1.0000   1.0000   1.0000   1.0000   1.0000   1.0000   1.0000   1.0000
     1.0000   1.0000   1.0000   1.0000   1.0000   1.0000   1.0000   1.0000
     1.0000  -0.0000  -0.0000  -0.0000  -0.0000  -0.0000

          k =-0.1553 0.3585-0.2045 (  7928 PWs)   bands (ev):

   -85.6063 -39.7573 -39.7533 -39.7226 -34.7027 -34.7026 -34.7020 -34.7017
   -34.6951 -34.6946 -34.6928 -34.6921 -34.6911 -34.6907  -0.3793   0.4267
     7.5396   7.7534   8.5584   9.1021   9.3955  10.6848  11.0074  11.7802
    12.4186  14.4942  15.8775  19.2772  20.3070  21.2836

     occupation numbers 
     1.0000   1.0000   1.0000   1.0000   1.0000   1.0000   1.0000   1.0000
     1.0000   1.0000   1.0000   1.0000   1.0000   1.0000   1.0000   1.0000
     1.0000   1.0000   1.0000   1.0000   1.0000   1.0000   1.0000   1.0000
     1.0000  -0.0000  -0.0000  -0.0000  -0.0000  -0.0000

          k =-0.1553 0.3585-0.2726 (  7934 PWs)   bands (ev):

   -85.6063 -39.7573 -39.7533 -39.7226 -34.7027 -34.7025 -34.7020 -34.7018
   -34.6949 -34.6947 -34.6927 -34.6923 -34.6911 -34.6905  -0.2191   0.2547
     7.4082   7.5925   8.6363   9.1285   9.5241  10.7166  11.2143  11.8667
    12.4057  14.3107  15.8177  19.3384  20.0353  21.5889

     occupation numbers 
     1.0000   1.0000   1.0000   1.0000   1.0000   1.0000   1.0000   1.0000
     1.0000   1.0000   1.0000   1.0000   1.0000   1.0000   1.0000   1.0000
     1.0000   1.0000   1.0000   1.0000   1.0000   1.0000   1.0000   1.0000
     1.0000  -0.0000  -0.0000  -0.0000  -0.0000  -0.0000

          k =-0.1553 0.3585-0.3408 (  7935 PWs)   bands (ev):

   -85.6063 -39.7573 -39.7533 -39.7226 -34.7028 -34.7024 -34.7021 -34.7018
   -34.6950 -34.6946 -34.6928 -34.6923 -34.6912 -34.6904  -0.0376   0.0714
     7.3197   7.4908   8.6090   9.1850   9.6176  10.7200  11.4885  11.9594
    12.2805  14.3896  15.5180  19.1463  19.9588  21.9955

     occupation numbers 
     1.0000   1.0000   1.0000   1.0000   1.0000   1.0000   1.0000   1.0000
     1.0000   1.0000   1.0000   1.0000   1.0000   1.0000   1.0000   1.0000
     1.0000   1.0000   1.0000   1.0000   1.0000   1.0000   1.0000   1.0000
     1.0000  -0.0000  -0.0000  -0.0000  -0.0000  -0.0000

          k =-0.1553 0.4482-0.0682 (  7933 PWs)   bands (ev):

   -85.6063 -39.7587 -39.7541 -39.7225 -34.7030 -34.7023 -34.7021 -34.7014
   -34.6959 -34.6938 -34.6932 -34.6915 -34.6911 -34.6909  -0.2107   0.5160
     7.3905   8.1752   8.5346   8.8978   9.3369  10.5578  10.7439  11.2263
    12.3838  14.9271  15.0419  18.3831  20.6578  21.4194

     occupation numbers 
     1.0000   1.0000   1.0000   1.0000   1.0000   1.0000   1.0000   1.0000
     1.0000   1.0000   1.0000   1.0000   1.0000   1.0000   1.0000   1.0000
     1.0000   1.0000   1.0000   1.0000   1.0000   1.0000   1.0000   1.0000
     1.0000  -0.0000  -0.0000  -0.0000  -0.0000  -0.0000

          k =-0.1553 0.4482-0.1363 (  7932 PWs)   bands (ev):

   -85.6063 -39.7587 -39.7541 -39.7225 -34.7029 -34.7024 -34.7020 -34.7015
   -34.6956 -34.6940 -34.6933 -34.6917 -34.6910 -34.6908  -0.1369   0.4424
     7.3633   8.0960   8.4813   9.0063   9.3358  10.5043  10.7490  11.3568
    12.2201  14.7243  15.5338  18.7095  20.4828  21.3789

     occupation numbers 
     1.0000   1.0000   1.0000   1.0000   1.0000   1.0000   1.0000   1.0000
     1.0000   1.0000   1.0000   1.0000   1.0000   1.0000   1.0000   1.0000
     1.0000   1.0000   1.0000   1.0000   1.0000   1.0000   1.0000   1.0000
     1.0000  -0.0000  -0.0000  -0.0000  -0.0000  -0.0000

          k =-0.1553 0.4482-0.2045 (  7929 PWs)   bands (ev):

   -85.6063 -39.7587 -39.7541 -39.7225 -34.7028 -34.7025 -34.7019 -34.7016
   -34.6953 -34.6943 -34.6933 -34.6920 -34.6909 -34.6907  -0.0387   0.3541
     7.2688   7.8745   8.5792   9.0555   9.3847  10.5094  10.7690  11.5139
    12.1648  14.4858  15.9737  19.0218  20.1777  21.5476

     occupation numbers 
     1.0000   1.0000   1.0000   1.0000   1.0000   1.0000   1.0000   1.0000
     1.0000   1.0000   1.0000   1.0000   1.0000   1.0000   1.0000   1.0000
     1.0000   1.0000   1.0000   1.0000   1.0000   1.0000   1.0000   1.0000
     1.0000  -0.0000  -0.0000  -0.0000  -0.0000  -0.0000

          k =-0.1553 0.4482-0.2726 (  7930 PWs)   bands (ev):

   -85.6063 -39.7587 -39.7541 -39.7225 -34.7027 -34.7025 -34.7018 -34.7018
   -34.6950 -34.6944 -34.6934 -34.6921 -34.6909 -34.6905   0.0644   0.2675
     7.1462   7.6837   8.5768   9.1817   9.4577  10.5828  10.7831  11.6540
    12.0731  14.5075  16.0913  19.1760  19.9522  21.5080

     occupation numbers 
     1.0000   1.0000   1.0000   1.0000   1.0000   1.0000   1.0000   1.0000
     1.0000   1.0000   1.0000   1.0000   1.0000   1.0000   1.0000   1.0000
     1.0000   1.0000   1.0000   1.0000   1.0000   1.0000   1.0000   1.0000
     1.0000  -0.0000  -0.0000  -0.0000  -0.0000  -0.0000

          k =-0.1553 0.4482-0.3408 (  7946 PWs)   bands (ev):

   -85.6063 -39.7587 -39.7541 -39.7225 -34.7027 -34.7023 -34.7020 -34.7018
   -34.6950 -34.6945 -34.6934 -34.6921 -34.6909 -34.6904   0.0817   0.2686
     7.0334   7.5602   8.4881   9.3810   9.5222  10.7109  10.7897  11.7880
    11.8680  14.8105  15.8189  19.1125  19.7622  21.7308

     occupation numbers 
     1.0000   1.0000   1.0000   1.0000   1.0000   1.0000   1.0000   1.0000
     1.0000   1.0000   1.0000   1.0000   1.0000   1.0000   1.0000   1.0000
     1.0000   1.0000   1.0000   1.0000   1.0000   1.0000   1.0000   1.0000
     1.0000  -0.0000  -0.0000  -0.0000  -0.0000  -0.0000

          k =-0.1553 0.5378-0.0682 (  7938 PWs)   bands (ev):

   -85.6063 -39.7595 -39.7545 -39.7224 -34.7032 -34.7022 -34.7020 -34.7012
   -34.6962 -34.6939 -34.6930 -34.6914 -34.6911 -34.6908   0.1042   0.3521
     6.9766   8.0926   8.8153   8.9792   9.5773  10.5043  10.6737  11.1353
    12.1854  14.4613  15.0104  18.2899  20.4915  21.1650

     occupation numbers 
     1.0000   1.0000   1.0000   1.0000   1.0000   1.0000   1.0000   1.0000
     1.0000   1.0000   1.0000   1.0000   1.0000   1.0000   1.0000   1.0000
     1.0000   1.0000   1.0000   1.0000   1.0000   1.0000   1.0000   1.0000
     1.0000  -0.0000  -0.0000  -0.0000  -0.0000  -0.0000

          k =-0.1553 0.5378-0.1363 (  7929 PWs)   bands (ev):

   -85.6063 -39.7595 -39.7545 -39.7225 -34.7030 -34.7023 -34.7020 -34.7013
   -34.6959 -34.6940 -34.6932 -34.6915 -34.6910 -34.6907   0.1401   0.3317
     6.9677   8.0039   8.7714   8.9906   9.5611  10.4354  10.6808  11.1827
    12.2173  14.4995  15.2649  18.5684  20.2488  21.3002

     occupation numbers 
     1.0000   1.0000   1.0000   1.0000   1.0000   1.0000   1.0000   1.0000
     1.0000   1.0000   1.0000   1.0000   1.0000   1.0000   1.0000   1.0000
     1.0000   1.0000   1.0000   1.0000   1.0000   1.0000   1.0000   1.0000
     1.0000  -0.0000  -0.0000  -0.0000  -0.0000  -0.0000

          k =-0.1553 0.5378-0.2045 (  7947 PWs)   bands (ev):

   -85.6063 -39.7595 -39.7545 -39.7225 -34.7029 -34.7024 -34.7019 -34.7015
   -34.6955 -34.6942 -34.6934 -34.6917 -34.6908 -34.6906   0.1488   0.3484
     6.9199   7.8887   8.7420   8.9379   9.6022  10.4167  10.6745  11.2753
    12.2157  14.4566  15.7581  18.7284  20.0084  21.7809

     occupation numbers 
     1.0000   1.0000   1.0000   1.0000   1.0000   1.0000   1.0000   1.0000
     1.0000   1.0000   1.0000   1.0000   1.0000   1.0000   1.0000   1.0000
     1.0000   1.0000   1.0000   1.0000   1.0000   1.0000   1.0000   1.0000
     1.0000  -0.0000  -0.0000  -0.0000  -0.0000  -0.0000

          k =-0.1553 0.5378-0.2726 (  7946 PWs)   bands (ev):

   -85.6063 -39.7595 -39.7545 -39.7225 -34.7027 -34.7025 -34.7019 -34.7017
   -34.6951 -34.6943 -34.6938 -34.6919 -34.6908 -34.6905   0.1291   0.3958
     6.8482   7.7827   8.6741   8.9247   9.6972  10.4367  10.6655  11.4083
    12.0403  14.6798  16.0583  18.8031  19.8652  21.7899

     occupation numbers 
     1.0000   1.0000   1.0000   1.0000   1.0000   1.0000   1.0000   1.0000
     1.0000   1.0000   1.0000   1.0000   1.0000   1.0000   1.0000   1.0000
     1.0000   1.0000   1.0000   1.0000   1.0000   1.0000   1.0000   1.0000
     1.0000  -0.0000  -0.0000  -0.0000  -0.0000  -0.0000

          k =-0.1553 0.5378-0.3408 (  7940 PWs)   bands (ev):

   -85.6063 -39.7595 -39.7545 -39.7225 -34.7026 -34.7025 -34.7019 -34.7017
   -34.6949 -34.6942 -34.6941 -34.6920 -34.6907 -34.6904   0.0987   0.4470
     6.7838   7.7050   8.5514   9.0362   9.7838  10.4764  10.6533  11.5686
    11.7774  15.0631  15.9655  18.9931  19.6160  21.4586

     occupation numbers 
     1.0000   1.0000   1.0000   1.0000   1.0000   1.0000   1.0000   1.0000
     1.0000   1.0000   1.0000   1.0000   1.0000   1.0000   1.0000   1.0000
     1.0000   1.0000   1.0000   1.0000   1.0000   1.0000   1.0000   1.0000
     1.0000  -0.0000  -0.0000  -0.0000  -0.0000  -0.0000

          k =-0.2329 0.4930-0.0682 (  7938 PWs)   bands (ev):

   -85.6063 -39.7587 -39.7555 -39.7224 -34.7030 -34.7023 -34.7022 -34.7011
   -34.6965 -34.6936 -34.6933 -34.6912 -34.6910 -34.6908   0.0413   0.4512
     7.2167   8.0509   8.1880   9.1173   9.2943  10.6396  10.8726  11.4073
    12.5720  14.2758  14.5158  17.9799  21.1224  22.0692

     occupation numbers 
     1.0000   1.0000   1.0000   1.0000   1.0000   1.0000   1.0000   1.0000
     1.0000   1.0000   1.0000   1.0000   1.0000   1.0000   1.0000   1.0000
     1.0000   1.0000   1.0000   1.0000   1.0000   1.0000   1.0000   1.0000
     1.0000  -0.0000  -0.0000  -0.0000  -0.0000  -0.0000

          k =-0.2329 0.4930-0.1363 (  7933 PWs)   bands (ev):

   -85.6063 -39.7587 -39.7555 -39.7224 -34.7029 -34.7024 -34.7021 -34.7012
   -34.6962 -34.6938 -34.6933 -34.6914 -34.6909 -34.6908   0.0822   0.4212
     7.2266   7.9606   8.1975   9.1520   9.3084  10.6163  10.7169  11.4691
    12.3233  14.2465  15.0989  18.4746  21.0661  21.8406

     occupation numbers 
     1.0000   1.0000   1.0000   1.0000   1.0000   1.0000   1.0000   1.0000
     1.0000   1.0000   1.0000   1.0000   1.0000   1.0000   1.0000   1.0000
     1.0000   1.0000   1.0000   1.0000   1.0000   1.0000   1.0000   1.0000
     1.0000  -0.0000  -0.0000  -0.0000  -0.0000  -0.0000

          k =-0.2329 0.4930-0.2045 (  7937 PWs)   bands (ev):

   -85.6063 -39.7587 -39.7555 -39.7225 -34.7028 -34.7024 -34.7021 -34.7014
   -34.6957 -34.6941 -34.6933 -34.6918 -34.6908 -34.6906   0.1328   0.3877
     7.2045   7.8004   8.3287   9.1065   9.3684  10.5239  10.6609  11.4712
    12.0514  14.4635  15.6521  19.0801  20.8072  21.5933

     occupation numbers 
     1.0000   1.0000   1.0000   1.0000   1.0000   1.0000   1.0000   1.0000
     1.0000   1.0000   1.0000   1.0000   1.0000   1.0000   1.0000   1.0000
     1.0000   1.0000   1.0000   1.0000   1.0000   1.0000   1.0000   1.0000
     1.0000  -0.0000  -0.0000  -0.0000  -0.0000  -0.0000

          k =-0.2329 0.4930-0.2726 (  7942 PWs)   bands (ev):

   -85.6063 -39.7587 -39.7555 -39.7225 -34.7026 -34.7024 -34.7020 -34.7016
   -34.6952 -34.6943 -34.6934 -34.6923 -34.6908 -34.6904   0.1767   0.3617
     7.1627   7.6594   8.5181   9.0010   9.4418  10.4533  10.6442  11.4421
    11.7772  14.9034  16.0047  19.5673  20.4550  21.5082

     occupation numbers 
     1.0000   1.0000   1.0000   1.0000   1.0000   1.0000   1.0000   1.0000
     1.0000   1.0000   1.0000   1.0000   1.0000   1.0000   1.0000   1.0000
     1.0000   1.0000   1.0000   1.0000   1.0000   1.0000   1.0000   1.0000
     1.0000  -0.0000  -0.0000  -0.0000  -0.0000  -0.0000

          k =-0.2329 0.4930-0.3408 (  7937 PWs)   bands (ev):

   -85.6063 -39.7587 -39.7555 -39.7225 -34.7026 -34.7022 -34.7019 -34.7018
   -34.6948 -34.6944 -34.6935 -34.6926 -34.6907 -34.6903   0.1848   0.3669
     7.1262   7.5658   8.6393   8.9581   9.5034  10.4374  10.6265  11.3458
    11.6582  15.3974  15.9937  19.6949  20.3195  21.6267

     occupation numbers 
     1.0000   1.0000   1.0000   1.0000   1.0000   1.0000   1.0000   1.0000
     1.0000   1.0000   1.0000   1.0000   1.0000   1.0000   1.0000   1.0000
     1.0000   1.0000   1.0000   1.0000   1.0000   1.0000   1.0000   1.0000
     1.0000  -0.0000  -0.0000  -0.0000  -0.0000  -0.0000

     the Fermi energy is    13.8421 ev

!    total energy              =    -746.20907714 Ry
     estimated scf accuracy    <          6.7E-09 Ry
     smearing contrib. (-TS)   =      -0.00003278 Ry
     internal energy E=F+TS    =    -746.20904436 Ry

     The total energy is F=E-TS. E is the sum of the following terms:
     one-electron contribution =    -344.65658453 Ry
     hartree contribution      =     189.34847651 Ry
     xc contribution           =    -144.40658629 Ry
     ewald contribution        =    -446.49435351 Ry
     Hubbard energy            =       0.00000345 Ry

     convergence has been achieved in  11 iterations

     Writing all to output data dir .//lscratch.bUPtSe2/bUPtSe2.save/
 
     init_run     :      1.48s CPU      1.83s WALL (       1 calls)
     electrons    :     51.93s CPU     54.28s WALL (       1 calls)

     Called by init_run:
     wfcinit      :      1.41s CPU      1.43s WALL (       1 calls)
     wfcinit:atom :      0.01s CPU      0.01s WALL (     196 calls)
     wfcinit:wfcr :      1.19s CPU      1.20s WALL (     196 calls)
     potinit      :      0.02s CPU      0.24s WALL (       1 calls)
     hinit0       :      0.03s CPU      0.14s WALL (       1 calls)

     Called by electrons:
     c_bands      :     45.27s CPU     46.12s WALL (      12 calls)
     sum_band     :      6.61s CPU      6.73s WALL (      12 calls)
     v_of_rho     :      0.03s CPU      0.03s WALL (      12 calls)
     v_h          :      0.00s CPU      0.00s WALL (      12 calls)
     v_xc         :      0.02s CPU      0.03s WALL (      12 calls)
     mix_rho      :      0.01s CPU      0.01s WALL (      12 calls)

     Called by c_bands:
     init_us_2    :      0.51s CPU      0.52s WALL (    5096 calls)
     init_us_2:cp :      0.50s CPU      0.52s WALL (    5096 calls)
     cegterg      :     41.21s CPU     41.93s WALL (    2352 calls)

     Called by sum_band:
     sum_band:wei :      0.08s CPU      0.08s WALL (      12 calls)
     sum_band:loo :      6.35s CPU      6.44s WALL (      12 calls)
     sum_band:buf :      0.03s CPU      0.03s WALL (    2352 calls)
     sum_band:ini :      0.23s CPU      0.24s WALL (    2352 calls)

     Called by *egterg:
     cdiaghg      :      6.34s CPU      6.52s WALL (    8951 calls)
     cegterg:over :      1.73s CPU      1.78s WALL (    6795 calls)
     cegterg:upda :      0.60s CPU      0.61s WALL (    6795 calls)
     cegterg:last :      1.04s CPU      1.05s WALL (    4611 calls)
     h_psi        :     31.71s CPU     32.19s WALL (    9343 calls)
     g_psi        :      0.09s CPU      0.09s WALL (    6795 calls)

     Called by h_psi:
     h_psi:calbec :      1.71s CPU      1.75s WALL (    9343 calls)
     vloc_psi     :     28.21s CPU     28.62s WALL (    9343 calls)
     add_vuspsi   :      1.17s CPU      1.20s WALL (    9343 calls)
     vhpsi        :      0.52s CPU      0.54s WALL (    9343 calls)

     General routines
     calbec       :      2.27s CPU      2.34s WALL (   21234 calls)
     fft          :      0.02s CPU      0.13s WALL (     121 calls)
     ffts         :      0.00s CPU      0.00s WALL (      12 calls)
     fftw         :     32.53s CPU     33.00s WALL (  416410 calls)
     davcio       :      0.00s CPU      0.33s WALL (     196 calls)
 
     Parallel routines

     Hubbard U routines
     new_ns       :      0.17s CPU      0.20s WALL (      12 calls)
     vhpsi        :      0.52s CPU      0.54s WALL (    9343 calls)
 
     PWSCF        :     54.35s CPU   2m16.49s WALL

 
   This run was terminated on:  18:12:38   5Sep2022            

=------------------------------------------------------------------------------=
   JOB DONE.
=------------------------------------------------------------------------------=
