
     Program HP v.7.1 starts on  6Sep2022 at  4: 7:45 

     This program is part of the open-source Quantum ESPRESSO suite
     for quantum simulation of materials; please cite
         "P. Giannozzi et al., J. Phys.:Condens. Matter 21 395502 (2009);
         "P. Giannozzi et al., J. Phys.:Condens. Matter 29 465901 (2017);
         "P. Giannozzi et al., J. Chem. Phys. 152 154105 (2020);
          URL http://www.quantum-espresso.org", 
     in publications or presentations arising from this work. More details at
     http://www.quantum-espresso.org/quote

     Parallel version (MPI), running on    24 processors

     MPI processes distributed on     1 nodes
     R & G space division:  proc/nbgrp/npool/nimage =      24
     491354 MiB available memory on the printing compute node when the environment starts
 

     =--------------------------------------------------------------------------=

       Calculation of Hubbard parameters from DFPT; please cite this program as

       I. Timrov, N. Marzari, and M. Cococcioni, Phys. Rev. B 98,  085127 (2018)

       I. Timrov, N. Marzari, and M. Cococcioni, Phys. Rev. B 103, 045141 (2021)

     =--------------------------------------------------------------------------=

     Reading xml data from directory:

     .//lscratch.bUPtSe2/bUPtSe2.save/

     IMPORTANT: XC functional enforced from input :
     Exchange-correlation= PBE
                           (   1   4   3   4   0   0   0)
     Any further DFT definition will be discarded
     Please, verify this is what you really want

 
     Parallelization info
     --------------------
     sticks:   dense  smooth     PW     G-vecs:    dense   smooth      PW
     Min          62      62     17                 2648     2648     387
     Max          63      63     18                 2655     2655     394
     Sum        1507    1507    421                63657    63657    9393
 
     Using Slab Decomposition
 
     Reading collected, re-writing distributed wavefunctions
 

     bravais-lattice index     =             0
     lattice parameter (alat)  =        7.1073 (a.u.)
     unit-cell volume          =      407.2428 (a.u.)^3
     number of atoms/cell      =             3
     number of atomic types    =             2
     kinetic-energy cut-off    =        110.00 (Ry)
     charge density cut-off    =        440.00 (Ry)
     conv. thresh. for NSCF    =       1.0E-11
     conv. thresh. for chi     =       1.0E-07
     Input Hubbard parameters (in eV):
       U ( 1)                     =   1.00000E-04

     celldm(1) =  7.10726  celldm(2) =  0.00000  celldm(3) =  0.00000
     celldm(4) =  0.00000  celldm(5) =  0.00000  celldm(6) =  0.00000

     crystal axes: (cart. coord. in units of alat)
               a(1) = (  0.9909  0.0000  0.0000 )  
               a(2) = ( -0.4955  0.8582  0.0000 )  
               a(3) = (  0.0000  0.0000  1.3339 )  

     reciprocal axes: (cart. coord. in units 2 pi/alat)
               b(1) = (  1.0091  0.5826  0.0000 )  
               b(2) = (  0.0000  1.1652  0.0000 )  
               b(3) = (  0.0000  0.0000  0.7497 )  

     Atoms inside the unit cell (Cartesian axes):
     site n.  atom      mass           positions (alat units)
        1      Pt    195.0840   tau(  1) = (  0.00000  0.00000  0.00000  )
        2      Se     78.9600   tau(  2) = (  0.49547  0.28606  0.97910  )
        3      Se     78.9600   tau(  3) = ( -0.00000  0.57212  0.35477  )

     Atom which will be perturbed:

        1      Pt    195.0840   tau( 1) = (  0.00000  0.00000  0.00000  )
 
     =====================================================================

                          PERTURBED ATOM #    1

     site n.  atom      mass           positions (alat units)
        1      Pt    195.0840   tau( 1) = (  0.00000  0.00000  0.00000  )
 
     =====================================================================

     The perturbed atom has a type which is unique!


     The grid of q-points ( 4, 4, 1)  (  4 q-points ) :
       N       xq(1)         xq(2)         xq(3)       wq
       1   0.000000000   0.000000000   0.000000000   0.062500000
       2   0.000000000   0.291311978   0.000000000   0.375000000
       3   0.000000000  -0.582623955   0.000000000   0.187500000
       4   0.252283573   0.436967966   0.000000000   0.375000000


     =-------------------------------------------------------------=

     Calculation for q #   1 = (   0.0000000   0.0000000   0.0000000 )

     =-------------------------------------------------------------=

                   WRITING LINEAR-RESPONSE SUMMARY:


     Number of symmetries in the small group of q, nsymq = 12
      + the symmetry q -> -q+G 

     Symmetry matrices (and vectors of fractional translations if f/=0):

     isym =  1     identity                                     

     cryst.   s( 1) = (     1          0          0      )
                      (     0          1          0      )
                      (     0          0          1      )

     cart.    s( 1) = (  1.0000000  0.0000000  0.0000000 )
                      (  0.0000000  1.0000000  0.0000000 )
                      (  0.0000000  0.0000000  1.0000000 )


     isym =  2     180 deg rotation - cart. axis [1,0,0]        

     cryst.   s( 2) = (     1          0          0      )
                      (    -1         -1          0      )
                      (     0          0         -1      )

     cart.    s( 2) = (  1.0000000  0.0000000  0.0000000 )
                      (  0.0000000 -1.0000000  0.0000000 )
                      (  0.0000000  0.0000000 -1.0000000 )


     isym =  3     120 deg rotation - cryst. axis [0,0,1]       

     cryst.   s( 3) = (     0          1          0      )
                      (    -1         -1          0      )
                      (     0          0          1      )

     cart.    s( 3) = ( -0.5000000 -0.8660254  0.0000000 )
                      (  0.8660254 -0.5000000  0.0000000 )
                      (  0.0000000  0.0000000  1.0000000 )


     isym =  4     120 deg rotation - cryst. axis [0,0,-1]      

     cryst.   s( 4) = (    -1         -1          0      )
                      (     1          0          0      )
                      (     0          0          1      )

     cart.    s( 4) = ( -0.5000000  0.8660254  0.0000000 )
                      ( -0.8660254 -0.5000000  0.0000000 )
                      (  0.0000000  0.0000000  1.0000000 )


     isym =  5     180 deg rotation - cryst. axis [0,1,0]       

     cryst.   s( 5) = (    -1         -1          0      )
                      (     0          1          0      )
                      (     0          0         -1      )

     cart.    s( 5) = ( -0.5000000 -0.8660254  0.0000000 )
                      ( -0.8660254  0.5000000  0.0000000 )
                      (  0.0000000  0.0000000 -1.0000000 )


     isym =  6     180 deg rotation - cryst. axis [1,1,0]       

     cryst.   s( 6) = (     0          1          0      )
                      (     1          0          0      )
                      (     0          0         -1      )

     cart.    s( 6) = ( -0.5000000  0.8660254  0.0000000 )
                      (  0.8660254  0.5000000  0.0000000 )
                      (  0.0000000  0.0000000 -1.0000000 )


     isym =  7     inversion                                    

     cryst.   s( 7) = (    -1          0          0      )
                      (     0         -1          0      )
                      (     0          0         -1      )

     cart.    s( 7) = ( -1.0000000  0.0000000  0.0000000 )
                      (  0.0000000 -1.0000000  0.0000000 )
                      (  0.0000000  0.0000000 -1.0000000 )


     isym =  8     inv. 180 deg rotation - cart. axis [1,0,0]   

     cryst.   s( 8) = (    -1          0          0      )
                      (     1          1          0      )
                      (     0          0          1      )

     cart.    s( 8) = ( -1.0000000 -0.0000000  0.0000000 )
                      (  0.0000000  1.0000000  0.0000000 )
                      (  0.0000000  0.0000000  1.0000000 )


     isym =  9     inv. 120 deg rotation - cryst. axis [0,0,1]  

     cryst.   s( 9) = (     0         -1          0      )
                      (     1          1          0      )
                      (     0          0         -1      )

     cart.    s( 9) = (  0.5000000  0.8660254  0.0000000 )
                      ( -0.8660254  0.5000000  0.0000000 )
                      (  0.0000000  0.0000000 -1.0000000 )


     isym = 10     inv. 120 deg rotation - cryst. axis [0,0,-1] 

     cryst.   s(10) = (     1          1          0      )
                      (    -1          0          0      )
                      (     0          0         -1      )

     cart.    s(10) = (  0.5000000 -0.8660254  0.0000000 )
                      (  0.8660254  0.5000000  0.0000000 )
                      (  0.0000000  0.0000000 -1.0000000 )


     isym = 11     inv. 180 deg rotation - cryst. axis [0,1,0]  

     cryst.   s(11) = (     1          1          0      )
                      (     0         -1          0      )
                      (     0          0          1      )

     cart.    s(11) = (  0.5000000  0.8660254  0.0000000 )
                      (  0.8660254 -0.5000000  0.0000000 )
                      (  0.0000000  0.0000000  1.0000000 )


     isym = 12     inv. 180 deg rotation - cryst. axis [1,1,0]  

     cryst.   s(12) = (     0         -1          0      )
                      (    -1          0          0      )
                      (     0          0          1      )

     cart.    s(12) = (  0.5000000 -0.8660254  0.0000000 )
                      ( -0.8660254 -0.5000000  0.0000000 )
                      (  0.0000000  0.0000000  1.0000000 )


     This transformation sends q -> -q+G

     isym = 13     identity                                     

     cryst.   s(13) = (     1          0          0      )
                      (     0          1          0      )
                      (     0          0          1      )

     cart.    s(13) = (  1.0000000  0.0000000  0.0000000 )
                      (  0.0000000  1.0000000  0.0000000 )
                      (  0.0000000  0.0000000  1.0000000 )


     G cutoff =  562.9857  (   2650 G-vectors)     FFT grid: ( 48, 48, 64)

     Number of k (and k+q if q/=0) points =   196  Methfessel-Paxton smearing, width (Ry) =  0.0080

                       cart. coord. (in units 2pi/alat)
        k (    1) = (   0.0000000   0.0000000   0.0000000), wk = 0.0010758
        k (    2) = (   0.0000000   0.0000000   0.0681543), wk = 0.0021517
        k (    3) = (   0.0000000   0.0000000   0.1363086), wk = 0.0021517
        k (    4) = (   0.0000000   0.0000000   0.2044629), wk = 0.0021517
        k (    5) = (   0.0000000   0.0000000   0.2726172), wk = 0.0021517
        k (    6) = (   0.0000000   0.0000000   0.3407715), wk = 0.0021517
        k (    7) = (   0.0000000   0.0896345   0.0000000), wk = 0.0064551
        k (    8) = (   0.0000000   0.0896345   0.0681543), wk = 0.0064551
        k (    9) = (   0.0000000   0.0896345   0.1363086), wk = 0.0064551
        k (   10) = (   0.0000000   0.0896345   0.2044629), wk = 0.0064551
        k (   11) = (   0.0000000   0.0896345   0.2726172), wk = 0.0064551
        k (   12) = (   0.0000000   0.0896345   0.3407715), wk = 0.0064551
        k (   13) = (   0.0000000   0.1792689   0.0000000), wk = 0.0064551
        k (   14) = (   0.0000000   0.1792689   0.0681543), wk = 0.0064551
        k (   15) = (   0.0000000   0.1792689   0.1363086), wk = 0.0064551
        k (   16) = (   0.0000000   0.1792689   0.2044629), wk = 0.0064551
        k (   17) = (   0.0000000   0.1792689   0.2726172), wk = 0.0064551
        k (   18) = (   0.0000000   0.1792689   0.3407715), wk = 0.0064551
        k (   19) = (   0.0000000   0.2689034   0.0000000), wk = 0.0064551
        k (   20) = (   0.0000000   0.2689034   0.0681543), wk = 0.0064551
        k (   21) = (   0.0000000   0.2689034   0.1363086), wk = 0.0064551
        k (   22) = (   0.0000000   0.2689034   0.2044629), wk = 0.0064551
        k (   23) = (   0.0000000   0.2689034   0.2726172), wk = 0.0064551
        k (   24) = (   0.0000000   0.2689034   0.3407715), wk = 0.0064551
        k (   25) = (   0.0000000   0.3585378   0.0000000), wk = 0.0064551
        k (   26) = (   0.0000000   0.3585378   0.0681543), wk = 0.0064551
        k (   27) = (   0.0000000   0.3585378   0.1363086), wk = 0.0064551
        k (   28) = (   0.0000000   0.3585378   0.2044629), wk = 0.0064551
        k (   29) = (   0.0000000   0.3585378   0.2726172), wk = 0.0064551
        k (   30) = (   0.0000000   0.3585378   0.3407715), wk = 0.0064551
        k (   31) = (   0.0000000   0.4481723   0.0000000), wk = 0.0064551
        k (   32) = (   0.0000000   0.4481723   0.0681543), wk = 0.0064551
        k (   33) = (   0.0000000   0.4481723   0.1363086), wk = 0.0064551
        k (   34) = (   0.0000000   0.4481723   0.2044629), wk = 0.0064551
        k (   35) = (   0.0000000   0.4481723   0.2726172), wk = 0.0064551
        k (   36) = (   0.0000000   0.4481723   0.3407715), wk = 0.0064551
        k (   37) = (   0.0000000   0.5378067   0.0000000), wk = 0.0064551
        k (   38) = (   0.0000000   0.5378067   0.0681543), wk = 0.0064551
        k (   39) = (   0.0000000   0.5378067   0.1363086), wk = 0.0064551
        k (   40) = (   0.0000000   0.5378067   0.2044629), wk = 0.0064551
        k (   41) = (   0.0000000   0.5378067   0.2726172), wk = 0.0064551
        k (   42) = (   0.0000000   0.5378067   0.3407715), wk = 0.0064551
        k (   43) = (   0.0776257   0.1344517   0.0000000), wk = 0.0064551
        k (   44) = (   0.0776257   0.1344517   0.0681543), wk = 0.0129102
        k (   45) = (   0.0776257   0.1344517   0.1363086), wk = 0.0129102
        k (   46) = (   0.0776257   0.1344517   0.2044629), wk = 0.0129102
        k (   47) = (   0.0776257   0.1344517   0.2726172), wk = 0.0129102
        k (   48) = (   0.0776257   0.1344517   0.3407715), wk = 0.0129102
        k (   49) = (   0.0776257   0.2240861   0.0000000), wk = 0.0129102
        k (   50) = (   0.0776257   0.2240861   0.0681543), wk = 0.0129102
        k (   51) = (   0.0776257   0.2240861   0.1363086), wk = 0.0129102
        k (   52) = (   0.0776257   0.2240861   0.2044629), wk = 0.0129102
        k (   53) = (   0.0776257   0.2240861   0.2726172), wk = 0.0129102
        k (   54) = (   0.0776257   0.2240861   0.3407715), wk = 0.0129102
        k (   55) = (   0.0776257   0.3137206   0.0000000), wk = 0.0129102
        k (   56) = (   0.0776257   0.3137206   0.0681543), wk = 0.0129102
        k (   57) = (   0.0776257   0.3137206   0.1363086), wk = 0.0129102
        k (   58) = (   0.0776257   0.3137206   0.2044629), wk = 0.0129102
        k (   59) = (   0.0776257   0.3137206   0.2726172), wk = 0.0129102
        k (   60) = (   0.0776257   0.3137206   0.3407715), wk = 0.0129102
        k (   61) = (   0.0776257   0.4033550   0.0000000), wk = 0.0129102
        k (   62) = (   0.0776257   0.4033550   0.0681543), wk = 0.0129102
        k (   63) = (   0.0776257   0.4033550   0.1363086), wk = 0.0129102
        k (   64) = (   0.0776257   0.4033550   0.2044629), wk = 0.0129102
        k (   65) = (   0.0776257   0.4033550   0.2726172), wk = 0.0129102
        k (   66) = (   0.0776257   0.4033550   0.3407715), wk = 0.0129102
        k (   67) = (   0.0776257   0.4929895   0.0000000), wk = 0.0129102
        k (   68) = (   0.0776257   0.4929895   0.0681543), wk = 0.0129102
        k (   69) = (   0.0776257   0.4929895   0.1363086), wk = 0.0129102
        k (   70) = (   0.0776257   0.4929895   0.2044629), wk = 0.0129102
        k (   71) = (   0.0776257   0.4929895   0.2726172), wk = 0.0129102
        k (   72) = (   0.0776257   0.4929895   0.3407715), wk = 0.0129102
        k (   73) = (   0.0776257   0.5826240   0.0000000), wk = 0.0064551
        k (   74) = (   0.0776257   0.5826240   0.0681543), wk = 0.0129102
        k (   75) = (   0.0776257   0.5826240   0.1363086), wk = 0.0129102
        k (   76) = (   0.0776257   0.5826240   0.2044629), wk = 0.0129102
        k (   77) = (   0.0776257   0.5826240   0.2726172), wk = 0.0129102
        k (   78) = (   0.0776257   0.5826240   0.3407715), wk = 0.0129102
        k (   79) = (   0.1552514   0.2689034   0.0000000), wk = 0.0064551
        k (   80) = (   0.1552514   0.2689034   0.0681543), wk = 0.0129102
        k (   81) = (   0.1552514   0.2689034   0.1363086), wk = 0.0129102
        k (   82) = (   0.1552514   0.2689034   0.2044629), wk = 0.0129102
        k (   83) = (   0.1552514   0.2689034   0.2726172), wk = 0.0129102
        k (   84) = (   0.1552514   0.2689034   0.3407715), wk = 0.0129102
        k (   85) = (   0.1552514   0.3585378   0.0000000), wk = 0.0129102
        k (   86) = (   0.1552514   0.3585378   0.0681543), wk = 0.0129102
        k (   87) = (   0.1552514   0.3585378   0.1363086), wk = 0.0129102
        k (   88) = (   0.1552514   0.3585378   0.2044629), wk = 0.0129102
        k (   89) = (   0.1552514   0.3585378   0.2726172), wk = 0.0129102
        k (   90) = (   0.1552514   0.3585378   0.3407715), wk = 0.0129102
        k (   91) = (   0.1552514   0.4481723   0.0000000), wk = 0.0129102
        k (   92) = (   0.1552514   0.4481723   0.0681543), wk = 0.0129102
        k (   93) = (   0.1552514   0.4481723   0.1363086), wk = 0.0129102
        k (   94) = (   0.1552514   0.4481723   0.2044629), wk = 0.0129102
        k (   95) = (   0.1552514   0.4481723   0.2726172), wk = 0.0129102
        k (   96) = (   0.1552514   0.4481723   0.3407715), wk = 0.0129102
        k (   97) = (   0.1552514   0.5378067   0.0000000), wk = 0.0129102
        k (   98) = (   0.1552514   0.5378067   0.0681543), wk = 0.0129102
        k (   99) = (   0.1552514   0.5378067   0.1363086), wk = 0.0129102
        k (  100) = (   0.1552514   0.5378067   0.2044629), wk = 0.0129102
        k (  101) = (   0.1552514   0.5378067   0.2726172), wk = 0.0129102
        k (  102) = (   0.1552514   0.5378067   0.3407715), wk = 0.0129102
        k (  103) = (   0.2328771   0.4033550   0.0000000), wk = 0.0064551
        k (  104) = (   0.2328771   0.4033550   0.0681543), wk = 0.0129102
        k (  105) = (   0.2328771   0.4033550   0.1363086), wk = 0.0129102
        k (  106) = (   0.2328771   0.4033550   0.2044629), wk = 0.0129102
        k (  107) = (   0.2328771   0.4033550   0.2726172), wk = 0.0129102
        k (  108) = (   0.2328771   0.4033550   0.3407715), wk = 0.0129102
        k (  109) = (   0.2328771   0.4929895   0.0000000), wk = 0.0129102
        k (  110) = (   0.2328771   0.4929895   0.0681543), wk = 0.0129102
        k (  111) = (   0.2328771   0.4929895   0.1363086), wk = 0.0129102
        k (  112) = (   0.2328771   0.4929895   0.2044629), wk = 0.0129102
        k (  113) = (   0.2328771   0.4929895   0.2726172), wk = 0.0129102
        k (  114) = (   0.2328771   0.4929895   0.3407715), wk = 0.0129102
        k (  115) = (   0.2328771   0.5826240   0.0000000), wk = 0.0064551
        k (  116) = (   0.2328771   0.5826240   0.0681543), wk = 0.0129102
        k (  117) = (   0.2328771   0.5826240   0.1363086), wk = 0.0129102
        k (  118) = (   0.2328771   0.5826240   0.2044629), wk = 0.0129102
        k (  119) = (   0.2328771   0.5826240   0.2726172), wk = 0.0129102
        k (  120) = (   0.2328771   0.5826240   0.3407715), wk = 0.0129102
        k (  121) = (   0.3105029   0.5378067   0.0000000), wk = 0.0064551
        k (  122) = (   0.3105029   0.5378067   0.0681543), wk = 0.0129102
        k (  123) = (   0.3105029   0.5378067   0.1363086), wk = 0.0129102
        k (  124) = (   0.3105029   0.5378067   0.2044629), wk = 0.0129102
        k (  125) = (   0.3105029   0.5378067   0.2726172), wk = 0.0129102
        k (  126) = (   0.3105029   0.5378067   0.3407715), wk = 0.0129102
        k (  127) = (   0.0000000   0.0896345  -0.0681543), wk = 0.0064551
        k (  128) = (   0.0000000   0.0896345  -0.1363086), wk = 0.0064551
        k (  129) = (   0.0000000   0.0896345  -0.2044629), wk = 0.0064551
        k (  130) = (   0.0000000   0.0896345  -0.2726172), wk = 0.0064551
        k (  131) = (   0.0000000   0.0896345  -0.3407715), wk = 0.0064551
        k (  132) = (   0.0000000   0.1792689  -0.0681543), wk = 0.0064551
        k (  133) = (   0.0000000   0.1792689  -0.1363086), wk = 0.0064551
        k (  134) = (   0.0000000   0.1792689  -0.2044629), wk = 0.0064551
        k (  135) = (   0.0000000   0.1792689  -0.2726172), wk = 0.0064551
        k (  136) = (   0.0000000   0.1792689  -0.3407715), wk = 0.0064551
        k (  137) = (   0.0000000   0.2689034  -0.0681543), wk = 0.0064551
        k (  138) = (   0.0000000   0.2689034  -0.1363086), wk = 0.0064551
        k (  139) = (   0.0000000   0.2689034  -0.2044629), wk = 0.0064551
        k (  140) = (   0.0000000   0.2689034  -0.2726172), wk = 0.0064551
        k (  141) = (   0.0000000   0.2689034  -0.3407715), wk = 0.0064551
        k (  142) = (   0.0000000   0.3585378  -0.0681543), wk = 0.0064551
        k (  143) = (   0.0000000   0.3585378  -0.1363086), wk = 0.0064551
        k (  144) = (   0.0000000   0.3585378  -0.2044629), wk = 0.0064551
        k (  145) = (   0.0000000   0.3585378  -0.2726172), wk = 0.0064551
        k (  146) = (   0.0000000   0.3585378  -0.3407715), wk = 0.0064551
        k (  147) = (   0.0000000   0.4481723  -0.0681543), wk = 0.0064551
        k (  148) = (   0.0000000   0.4481723  -0.1363086), wk = 0.0064551
        k (  149) = (   0.0000000   0.4481723  -0.2044629), wk = 0.0064551
        k (  150) = (   0.0000000   0.4481723  -0.2726172), wk = 0.0064551
        k (  151) = (   0.0000000   0.4481723  -0.3407715), wk = 0.0064551
        k (  152) = (   0.0000000   0.5378067  -0.0681543), wk = 0.0064551
        k (  153) = (   0.0000000   0.5378067  -0.1363086), wk = 0.0064551
        k (  154) = (   0.0000000   0.5378067  -0.2044629), wk = 0.0064551
        k (  155) = (   0.0000000   0.5378067  -0.2726172), wk = 0.0064551
        k (  156) = (   0.0000000   0.5378067  -0.3407715), wk = 0.0064551
        k (  157) = (  -0.0776257   0.2240861  -0.0681543), wk = 0.0129102
        k (  158) = (  -0.0776257   0.2240861  -0.1363086), wk = 0.0129102
        k (  159) = (  -0.0776257   0.2240861  -0.2044629), wk = 0.0129102
        k (  160) = (  -0.0776257   0.2240861  -0.2726172), wk = 0.0129102
        k (  161) = (  -0.0776257   0.2240861  -0.3407715), wk = 0.0129102
        k (  162) = (  -0.0776257   0.3137206  -0.0681543), wk = 0.0129102
        k (  163) = (  -0.0776257   0.3137206  -0.1363086), wk = 0.0129102
        k (  164) = (  -0.0776257   0.3137206  -0.2044629), wk = 0.0129102
        k (  165) = (  -0.0776257   0.3137206  -0.2726172), wk = 0.0129102
        k (  166) = (  -0.0776257   0.3137206  -0.3407715), wk = 0.0129102
        k (  167) = (  -0.0776257   0.4033550  -0.0681543), wk = 0.0129102
        k (  168) = (  -0.0776257   0.4033550  -0.1363086), wk = 0.0129102
        k (  169) = (  -0.0776257   0.4033550  -0.2044629), wk = 0.0129102
        k (  170) = (  -0.0776257   0.4033550  -0.2726172), wk = 0.0129102
        k (  171) = (  -0.0776257   0.4033550  -0.3407715), wk = 0.0129102
        k (  172) = (  -0.0776257   0.4929895  -0.0681543), wk = 0.0129102
        k (  173) = (  -0.0776257   0.4929895  -0.1363086), wk = 0.0129102
        k (  174) = (  -0.0776257   0.4929895  -0.2044629), wk = 0.0129102
        k (  175) = (  -0.0776257   0.4929895  -0.2726172), wk = 0.0129102
        k (  176) = (  -0.0776257   0.4929895  -0.3407715), wk = 0.0129102
        k (  177) = (  -0.1552514   0.3585378  -0.0681543), wk = 0.0129102
        k (  178) = (  -0.1552514   0.3585378  -0.1363086), wk = 0.0129102
        k (  179) = (  -0.1552514   0.3585378  -0.2044629), wk = 0.0129102
        k (  180) = (  -0.1552514   0.3585378  -0.2726172), wk = 0.0129102
        k (  181) = (  -0.1552514   0.3585378  -0.3407715), wk = 0.0129102
        k (  182) = (  -0.1552514   0.4481723  -0.0681543), wk = 0.0129102
        k (  183) = (  -0.1552514   0.4481723  -0.1363086), wk = 0.0129102
        k (  184) = (  -0.1552514   0.4481723  -0.2044629), wk = 0.0129102
        k (  185) = (  -0.1552514   0.4481723  -0.2726172), wk = 0.0129102
        k (  186) = (  -0.1552514   0.4481723  -0.3407715), wk = 0.0129102
        k (  187) = (  -0.1552514   0.5378067  -0.0681543), wk = 0.0129102
        k (  188) = (  -0.1552514   0.5378067  -0.1363086), wk = 0.0129102
        k (  189) = (  -0.1552514   0.5378067  -0.2044629), wk = 0.0129102
        k (  190) = (  -0.1552514   0.5378067  -0.2726172), wk = 0.0129102
        k (  191) = (  -0.1552514   0.5378067  -0.3407715), wk = 0.0129102
        k (  192) = (  -0.2328771   0.4929895  -0.0681543), wk = 0.0129102
        k (  193) = (  -0.2328771   0.4929895  -0.1363086), wk = 0.0129102
        k (  194) = (  -0.2328771   0.4929895  -0.2044629), wk = 0.0129102
        k (  195) = (  -0.2328771   0.4929895  -0.2726172), wk = 0.0129102
        k (  196) = (  -0.2328771   0.4929895  -0.3407715), wk = 0.0129102

                       cryst. coord.
        k (    1) = (   0.0000000   0.0000000   0.0000000), wk = 0.0010758
        k (    2) = (   0.0000000   0.0000000   0.0909091), wk = 0.0021517
        k (    3) = (   0.0000000   0.0000000   0.1818182), wk = 0.0021517
        k (    4) = (   0.0000000   0.0000000   0.2727273), wk = 0.0021517
        k (    5) = (   0.0000000   0.0000000   0.3636364), wk = 0.0021517
        k (    6) = (   0.0000000   0.0000000   0.4545455), wk = 0.0021517
        k (    7) = (   0.0000000   0.0769231   0.0000000), wk = 0.0064551
        k (    8) = (   0.0000000   0.0769231   0.0909091), wk = 0.0064551
        k (    9) = (   0.0000000   0.0769231   0.1818182), wk = 0.0064551
        k (   10) = (   0.0000000   0.0769231   0.2727273), wk = 0.0064551
        k (   11) = (   0.0000000   0.0769231   0.3636364), wk = 0.0064551
        k (   12) = (   0.0000000   0.0769231   0.4545455), wk = 0.0064551
        k (   13) = (   0.0000000   0.1538462   0.0000000), wk = 0.0064551
        k (   14) = (   0.0000000   0.1538462   0.0909091), wk = 0.0064551
        k (   15) = (   0.0000000   0.1538462   0.1818182), wk = 0.0064551
        k (   16) = (   0.0000000   0.1538462   0.2727273), wk = 0.0064551
        k (   17) = (   0.0000000   0.1538462   0.3636364), wk = 0.0064551
        k (   18) = (   0.0000000   0.1538462   0.4545455), wk = 0.0064551
        k (   19) = (   0.0000000   0.2307692   0.0000000), wk = 0.0064551
        k (   20) = (   0.0000000   0.2307692   0.0909091), wk = 0.0064551
        k (   21) = (   0.0000000   0.2307692   0.1818182), wk = 0.0064551
        k (   22) = (   0.0000000   0.2307692   0.2727273), wk = 0.0064551
        k (   23) = (   0.0000000   0.2307692   0.3636364), wk = 0.0064551
        k (   24) = (   0.0000000   0.2307692   0.4545455), wk = 0.0064551
        k (   25) = (   0.0000000   0.3076923   0.0000000), wk = 0.0064551
        k (   26) = (   0.0000000   0.3076923   0.0909091), wk = 0.0064551
        k (   27) = (   0.0000000   0.3076923   0.1818182), wk = 0.0064551
        k (   28) = (   0.0000000   0.3076923   0.2727273), wk = 0.0064551
        k (   29) = (   0.0000000   0.3076923   0.3636364), wk = 0.0064551
        k (   30) = (   0.0000000   0.3076923   0.4545455), wk = 0.0064551
        k (   31) = (   0.0000000   0.3846154   0.0000000), wk = 0.0064551
        k (   32) = (   0.0000000   0.3846154   0.0909091), wk = 0.0064551
        k (   33) = (   0.0000000   0.3846154   0.1818182), wk = 0.0064551
        k (   34) = (   0.0000000   0.3846154   0.2727273), wk = 0.0064551
        k (   35) = (   0.0000000   0.3846154   0.3636364), wk = 0.0064551
        k (   36) = (   0.0000000   0.3846154   0.4545455), wk = 0.0064551
        k (   37) = (   0.0000000   0.4615385   0.0000000), wk = 0.0064551
        k (   38) = (   0.0000000   0.4615385   0.0909091), wk = 0.0064551
        k (   39) = (   0.0000000   0.4615385   0.1818182), wk = 0.0064551
        k (   40) = (   0.0000000   0.4615385   0.2727273), wk = 0.0064551
        k (   41) = (   0.0000000   0.4615385   0.3636364), wk = 0.0064551
        k (   42) = (   0.0000000   0.4615385   0.4545455), wk = 0.0064551
        k (   43) = (   0.0769231   0.0769231   0.0000000), wk = 0.0064551
        k (   44) = (   0.0769231   0.0769231   0.0909091), wk = 0.0129102
        k (   45) = (   0.0769231   0.0769231   0.1818182), wk = 0.0129102
        k (   46) = (   0.0769231   0.0769231   0.2727273), wk = 0.0129102
        k (   47) = (   0.0769231   0.0769231   0.3636364), wk = 0.0129102
        k (   48) = (   0.0769231   0.0769231   0.4545455), wk = 0.0129102
        k (   49) = (   0.0769231   0.1538462   0.0000000), wk = 0.0129102
        k (   50) = (   0.0769231   0.1538462   0.0909091), wk = 0.0129102
        k (   51) = (   0.0769231   0.1538462   0.1818182), wk = 0.0129102
        k (   52) = (   0.0769231   0.1538462   0.2727273), wk = 0.0129102
        k (   53) = (   0.0769231   0.1538462   0.3636364), wk = 0.0129102
        k (   54) = (   0.0769231   0.1538462   0.4545455), wk = 0.0129102
        k (   55) = (   0.0769231   0.2307692   0.0000000), wk = 0.0129102
        k (   56) = (   0.0769231   0.2307692   0.0909091), wk = 0.0129102
        k (   57) = (   0.0769231   0.2307692   0.1818182), wk = 0.0129102
        k (   58) = (   0.0769231   0.2307692   0.2727273), wk = 0.0129102
        k (   59) = (   0.0769231   0.2307692   0.3636364), wk = 0.0129102
        k (   60) = (   0.0769231   0.2307692   0.4545455), wk = 0.0129102
        k (   61) = (   0.0769231   0.3076923   0.0000000), wk = 0.0129102
        k (   62) = (   0.0769231   0.3076923   0.0909091), wk = 0.0129102
        k (   63) = (   0.0769231   0.3076923   0.1818182), wk = 0.0129102
        k (   64) = (   0.0769231   0.3076923   0.2727273), wk = 0.0129102
        k (   65) = (   0.0769231   0.3076923   0.3636364), wk = 0.0129102
        k (   66) = (   0.0769231   0.3076923   0.4545455), wk = 0.0129102
        k (   67) = (   0.0769231   0.3846154   0.0000000), wk = 0.0129102
        k (   68) = (   0.0769231   0.3846154   0.0909091), wk = 0.0129102
        k (   69) = (   0.0769231   0.3846154   0.1818182), wk = 0.0129102
        k (   70) = (   0.0769231   0.3846154   0.2727273), wk = 0.0129102
        k (   71) = (   0.0769231   0.3846154   0.3636364), wk = 0.0129102
        k (   72) = (   0.0769231   0.3846154   0.4545455), wk = 0.0129102
        k (   73) = (   0.0769231   0.4615385   0.0000000), wk = 0.0064551
        k (   74) = (   0.0769231   0.4615385   0.0909091), wk = 0.0129102
        k (   75) = (   0.0769231   0.4615385   0.1818182), wk = 0.0129102
        k (   76) = (   0.0769231   0.4615385   0.2727273), wk = 0.0129102
        k (   77) = (   0.0769231   0.4615385   0.3636364), wk = 0.0129102
        k (   78) = (   0.0769231   0.4615385   0.4545455), wk = 0.0129102
        k (   79) = (   0.1538462   0.1538462   0.0000000), wk = 0.0064551
        k (   80) = (   0.1538462   0.1538462   0.0909091), wk = 0.0129102
        k (   81) = (   0.1538462   0.1538462   0.1818182), wk = 0.0129102
        k (   82) = (   0.1538462   0.1538462   0.2727273), wk = 0.0129102
        k (   83) = (   0.1538462   0.1538462   0.3636364), wk = 0.0129102
        k (   84) = (   0.1538462   0.1538462   0.4545455), wk = 0.0129102
        k (   85) = (   0.1538462   0.2307692   0.0000000), wk = 0.0129102
        k (   86) = (   0.1538462   0.2307692   0.0909091), wk = 0.0129102
        k (   87) = (   0.1538462   0.2307692   0.1818182), wk = 0.0129102
        k (   88) = (   0.1538462   0.2307692   0.2727273), wk = 0.0129102
        k (   89) = (   0.1538462   0.2307692   0.3636364), wk = 0.0129102
        k (   90) = (   0.1538462   0.2307692   0.4545455), wk = 0.0129102
        k (   91) = (   0.1538462   0.3076923   0.0000000), wk = 0.0129102
        k (   92) = (   0.1538462   0.3076923   0.0909091), wk = 0.0129102
        k (   93) = (   0.1538462   0.3076923   0.1818182), wk = 0.0129102
        k (   94) = (   0.1538462   0.3076923   0.2727273), wk = 0.0129102
        k (   95) = (   0.1538462   0.3076923   0.3636364), wk = 0.0129102
        k (   96) = (   0.1538462   0.3076923   0.4545455), wk = 0.0129102
        k (   97) = (   0.1538462   0.3846154   0.0000000), wk = 0.0129102
        k (   98) = (   0.1538462   0.3846154   0.0909091), wk = 0.0129102
        k (   99) = (   0.1538462   0.3846154   0.1818182), wk = 0.0129102
        k (  100) = (   0.1538462   0.3846154   0.2727273), wk = 0.0129102
        k (  101) = (   0.1538462   0.3846154   0.3636364), wk = 0.0129102
        k (  102) = (   0.1538462   0.3846154   0.4545455), wk = 0.0129102
        k (  103) = (   0.2307692   0.2307692   0.0000000), wk = 0.0064551
        k (  104) = (   0.2307692   0.2307692   0.0909091), wk = 0.0129102
        k (  105) = (   0.2307692   0.2307692   0.1818182), wk = 0.0129102
        k (  106) = (   0.2307692   0.2307692   0.2727273), wk = 0.0129102
        k (  107) = (   0.2307692   0.2307692   0.3636364), wk = 0.0129102
        k (  108) = (   0.2307692   0.2307692   0.4545455), wk = 0.0129102
        k (  109) = (   0.2307692   0.3076923   0.0000000), wk = 0.0129102
        k (  110) = (   0.2307692   0.3076923   0.0909091), wk = 0.0129102
        k (  111) = (   0.2307692   0.3076923   0.1818182), wk = 0.0129102
        k (  112) = (   0.2307692   0.3076923   0.2727273), wk = 0.0129102
        k (  113) = (   0.2307692   0.3076923   0.3636364), wk = 0.0129102
        k (  114) = (   0.2307692   0.3076923   0.4545455), wk = 0.0129102
        k (  115) = (   0.2307692   0.3846154   0.0000000), wk = 0.0064551
        k (  116) = (   0.2307692   0.3846154   0.0909091), wk = 0.0129102
        k (  117) = (   0.2307692   0.3846154   0.1818182), wk = 0.0129102
        k (  118) = (   0.2307692   0.3846154   0.2727273), wk = 0.0129102
        k (  119) = (   0.2307692   0.3846154   0.3636364), wk = 0.0129102
        k (  120) = (   0.2307692   0.3846154   0.4545455), wk = 0.0129102
        k (  121) = (   0.3076923   0.3076923   0.0000000), wk = 0.0064551
        k (  122) = (   0.3076923   0.3076923   0.0909091), wk = 0.0129102
        k (  123) = (   0.3076923   0.3076923   0.1818182), wk = 0.0129102
        k (  124) = (   0.3076923   0.3076923   0.2727273), wk = 0.0129102
        k (  125) = (   0.3076923   0.3076923   0.3636364), wk = 0.0129102
        k (  126) = (   0.3076923   0.3076923   0.4545455), wk = 0.0129102
        k (  127) = (   0.0000000   0.0769231  -0.0909091), wk = 0.0064551
        k (  128) = (   0.0000000   0.0769231  -0.1818182), wk = 0.0064551
        k (  129) = (   0.0000000   0.0769231  -0.2727273), wk = 0.0064551
        k (  130) = (   0.0000000   0.0769231  -0.3636364), wk = 0.0064551
        k (  131) = (   0.0000000   0.0769231  -0.4545455), wk = 0.0064551
        k (  132) = (   0.0000000   0.1538462  -0.0909091), wk = 0.0064551
        k (  133) = (   0.0000000   0.1538462  -0.1818182), wk = 0.0064551
        k (  134) = (   0.0000000   0.1538462  -0.2727273), wk = 0.0064551
        k (  135) = (   0.0000000   0.1538462  -0.3636364), wk = 0.0064551
        k (  136) = (   0.0000000   0.1538462  -0.4545455), wk = 0.0064551
        k (  137) = (   0.0000000   0.2307692  -0.0909091), wk = 0.0064551
        k (  138) = (   0.0000000   0.2307692  -0.1818182), wk = 0.0064551
        k (  139) = (   0.0000000   0.2307692  -0.2727273), wk = 0.0064551
        k (  140) = (   0.0000000   0.2307692  -0.3636364), wk = 0.0064551
        k (  141) = (   0.0000000   0.2307692  -0.4545455), wk = 0.0064551
        k (  142) = (   0.0000000   0.3076923  -0.0909091), wk = 0.0064551
        k (  143) = (   0.0000000   0.3076923  -0.1818182), wk = 0.0064551
        k (  144) = (   0.0000000   0.3076923  -0.2727273), wk = 0.0064551
        k (  145) = (   0.0000000   0.3076923  -0.3636364), wk = 0.0064551
        k (  146) = (   0.0000000   0.3076923  -0.4545455), wk = 0.0064551
        k (  147) = (   0.0000000   0.3846154  -0.0909091), wk = 0.0064551
        k (  148) = (   0.0000000   0.3846154  -0.1818182), wk = 0.0064551
        k (  149) = (   0.0000000   0.3846154  -0.2727273), wk = 0.0064551
        k (  150) = (   0.0000000   0.3846154  -0.3636364), wk = 0.0064551
        k (  151) = (   0.0000000   0.3846154  -0.4545455), wk = 0.0064551
        k (  152) = (   0.0000000   0.4615385  -0.0909091), wk = 0.0064551
        k (  153) = (   0.0000000   0.4615385  -0.1818182), wk = 0.0064551
        k (  154) = (   0.0000000   0.4615385  -0.2727273), wk = 0.0064551
        k (  155) = (   0.0000000   0.4615385  -0.3636364), wk = 0.0064551
        k (  156) = (   0.0000000   0.4615385  -0.4545455), wk = 0.0064551
        k (  157) = (  -0.0769231   0.2307692  -0.0909091), wk = 0.0129102
        k (  158) = (  -0.0769231   0.2307692  -0.1818182), wk = 0.0129102
        k (  159) = (  -0.0769231   0.2307692  -0.2727273), wk = 0.0129102
        k (  160) = (  -0.0769231   0.2307692  -0.3636364), wk = 0.0129102
        k (  161) = (  -0.0769231   0.2307692  -0.4545455), wk = 0.0129102
        k (  162) = (  -0.0769231   0.3076923  -0.0909091), wk = 0.0129102
        k (  163) = (  -0.0769231   0.3076923  -0.1818182), wk = 0.0129102
        k (  164) = (  -0.0769231   0.3076923  -0.2727273), wk = 0.0129102
        k (  165) = (  -0.0769231   0.3076923  -0.3636364), wk = 0.0129102
        k (  166) = (  -0.0769231   0.3076923  -0.4545455), wk = 0.0129102
        k (  167) = (  -0.0769231   0.3846154  -0.0909091), wk = 0.0129102
        k (  168) = (  -0.0769231   0.3846154  -0.1818182), wk = 0.0129102
        k (  169) = (  -0.0769231   0.3846154  -0.2727273), wk = 0.0129102
        k (  170) = (  -0.0769231   0.3846154  -0.3636364), wk = 0.0129102
        k (  171) = (  -0.0769231   0.3846154  -0.4545455), wk = 0.0129102
        k (  172) = (  -0.0769231   0.4615385  -0.0909091), wk = 0.0129102
        k (  173) = (  -0.0769231   0.4615385  -0.1818182), wk = 0.0129102
        k (  174) = (  -0.0769231   0.4615385  -0.2727273), wk = 0.0129102
        k (  175) = (  -0.0769231   0.4615385  -0.3636364), wk = 0.0129102
        k (  176) = (  -0.0769231   0.4615385  -0.4545455), wk = 0.0129102
        k (  177) = (  -0.1538462   0.3846154  -0.0909091), wk = 0.0129102
        k (  178) = (  -0.1538462   0.3846154  -0.1818182), wk = 0.0129102
        k (  179) = (  -0.1538462   0.3846154  -0.2727273), wk = 0.0129102
        k (  180) = (  -0.1538462   0.3846154  -0.3636364), wk = 0.0129102
        k (  181) = (  -0.1538462   0.3846154  -0.4545455), wk = 0.0129102
        k (  182) = (  -0.1538462   0.4615385  -0.0909091), wk = 0.0129102
        k (  183) = (  -0.1538462   0.4615385  -0.1818182), wk = 0.0129102
        k (  184) = (  -0.1538462   0.4615385  -0.2727273), wk = 0.0129102
        k (  185) = (  -0.1538462   0.4615385  -0.3636364), wk = 0.0129102
        k (  186) = (  -0.1538462   0.4615385  -0.4545455), wk = 0.0129102
        k (  187) = (  -0.1538462   0.5384615  -0.0909091), wk = 0.0129102
        k (  188) = (  -0.1538462   0.5384615  -0.1818182), wk = 0.0129102
        k (  189) = (  -0.1538462   0.5384615  -0.2727273), wk = 0.0129102
        k (  190) = (  -0.1538462   0.5384615  -0.3636364), wk = 0.0129102
        k (  191) = (  -0.1538462   0.5384615  -0.4545455), wk = 0.0129102
        k (  192) = (  -0.2307692   0.5384615  -0.0909091), wk = 0.0129102
        k (  193) = (  -0.2307692   0.5384615  -0.1818182), wk = 0.0129102
        k (  194) = (  -0.2307692   0.5384615  -0.2727273), wk = 0.0129102
        k (  195) = (  -0.2307692   0.5384615  -0.3636364), wk = 0.0129102
        k (  196) = (  -0.2307692   0.5384615  -0.4545455), wk = 0.0129102

     Atomic wfc used for the projector on the Hubbard manifold are orthogonalized

     Total time spent up to now is:
     HP           :      5.03s CPU     22.12s WALL

      =--------------------------------------------=
                 SOLVE THE LINEAR SYSTEM
      =--------------------------------------------=

      atom #  1   q point #   1   iter #   1
 
     Pert. #  1: Fermi energy shift (Ry) =     3.6551E-01     1.5966E-11
      chi:   1  -0.2785901861
      Average number of iter. to solve lin. system:   37.8
      Total CPU time :    78.1 s

      atom #  1   q point #   1   iter #   2
 
     Pert. #  1: Fermi energy shift (Ry) =     1.5318E-01     1.9526E-10
      chi:   1  -0.0465787983   residue:    0.2320113878
      Average number of iter. to solve lin. system:   14.2
      Total CPU time :    99.0 s

      atom #  1   q point #   1   iter #   3
 
     Pert. #  1: Fermi energy shift (Ry) =     2.3000E-01    -5.2785E-12
      chi:   1  -0.1273008140   residue:    0.0807220156
      Average number of iter. to solve lin. system:   13.5
      Total CPU time :   118.2 s

      atom #  1   q point #   1   iter #   4
 
     Pert. #  1: Fermi energy shift (Ry) =     2.3251E-01     9.1864E-12
      chi:   1  -0.1280773210   residue:    0.0007765070
      Average number of iter. to solve lin. system:   14.8
      Total CPU time :   139.5 s

      atom #  1   q point #   1   iter #   5
 
     Pert. #  1: Fermi energy shift (Ry) =     2.3240E-01     9.0967E-12
      chi:   1  -0.1274127465   residue:    0.0006645745
      Average number of iter. to solve lin. system:   15.4
      Total CPU time :   168.3 s

      atom #  1   q point #   1   iter #   6
 
     Pert. #  1: Fermi energy shift (Ry) =     2.3214E-01     9.0135E-12
      chi:   1  -0.1271901637   residue:    0.0002225828
      Average number of iter. to solve lin. system:   15.4
      Total CPU time :   193.3 s

      atom #  1   q point #   1   iter #   7
 
     Pert. #  1: Fermi energy shift (Ry) =     2.3193E-01     8.1503E-12
      chi:   1  -0.1272110732   residue:    0.0000209094
      Average number of iter. to solve lin. system:   15.0
      Total CPU time :   217.3 s

      atom #  1   q point #   1   iter #   8
 
     Pert. #  1: Fermi energy shift (Ry) =     2.3200E-01     9.6043E-12
      chi:   1  -0.1272162624   residue:    0.0000051892
      Average number of iter. to solve lin. system:   15.1
      Total CPU time :   241.2 s

      atom #  1   q point #   1   iter #   9
 
     Pert. #  1: Fermi energy shift (Ry) =     2.3201E-01     9.1002E-12
      chi:   1  -0.1272194445   residue:    0.0000031822
      Average number of iter. to solve lin. system:   14.7
      Total CPU time :   264.1 s

      atom #  1   q point #   1   iter #  10
 
     Pert. #  1: Fermi energy shift (Ry) =     2.3202E-01     9.1314E-12
      chi:   1  -0.1272189346   residue:    0.0000005099
      Average number of iter. to solve lin. system:   15.1
      Total CPU time :   285.7 s

      atom #  1   q point #   1   iter #  11
 
     Pert. #  1: Fermi energy shift (Ry) =     2.3202E-01     9.1282E-12
      chi:   1  -0.1272199111   residue:    0.0000009765
      Average number of iter. to solve lin. system:   15.9
      Total CPU time :   311.9 s

      atom #  1   q point #   1   iter #  12
 
     Pert. #  1: Fermi energy shift (Ry) =     2.3202E-01     9.1313E-12
      chi:   1  -0.1272199351   residue:    0.0000000240
      Average number of iter. to solve lin. system:   14.8
      Total CPU time :   336.6 s
      
      =--------------------------------------------=
             CONVERGENCE HAS BEEN REACHED
      =--------------------------------------------=


     =-------------------------------------------------------------=

     Calculation for q #   2 = (   0.0000000   0.2913120   0.0000000 )

     =-------------------------------------------------------------=

     Performing NSCF calculation at all points k and k+q...
     Subspace diagonalization in iterative solution of the eigenvalue problem:
     one sub-group per band group will be used
     scalapack distributed-memory algorithm (size of sub-group:  4*  4 procs)

 
     Parallelization info
     --------------------
     sticks:   dense  smooth     PW     G-vecs:    dense   smooth      PW
     Min          62      62     18                 2648     2648     418
     Max          63      63     19                 2655     2655     425
     Sum        1507    1507    439                63657    63657   10049
 
     Using Slab Decomposition
 


     bravais-lattice index     =            0
     lattice parameter (alat)  =       7.1073  a.u.
     unit-cell volume          =     407.2428 (a.u.)^3
     number of atoms/cell      =            3
     number of atomic types    =            2
     number of electrons       =        50.00
     number of Kohn-Sham states=           30
     kinetic-energy cutoff     =     110.0000  Ry
     charge density cutoff     =     440.0000  Ry
     Exchange-correlation= PBE
                           (   1   4   3   4   0   0   0)
     Hubbard projectors: ortho-atomic
     Hubbard parameters of DFT+U (Dudarev formulation) in eV:
     U(Pt-5d) =  0.0001

     Internal variables: lda_plus_u = T, lda_plus_u_kind = 0

     celldm(1)=   7.107260  celldm(2)=   0.000000  celldm(3)=   0.000000
     celldm(4)=   0.000000  celldm(5)=   0.000000  celldm(6)=   0.000000

     crystal axes: (cart. coord. in units of alat)
               a(1) = (   0.990948   0.000000   0.000000 )  
               a(2) = (  -0.495474   0.858186   0.000000 )  
               a(3) = (   0.000000   0.000000   1.333872 )  

     reciprocal axes: (cart. coord. in units 2 pi/alat)
               b(1) = (  1.009134  0.582624  0.000000 )  
               b(2) = (  0.000000  1.165248  0.000000 )  
               b(3) = (  0.000000  0.000000  0.749697 )  


     PseudoPot. # 1 for Pt read from file:
     ./Pt.upf
     MD5 check sum: 3caa314b32314335c676ebce8d0bd64e
     Pseudo is Norm-conserving + core correction, Zval = 18.0
     Generated using ONCVPSP code by D. R. Hamann
     Using radial grid of 1374 points,  8 beta functions with: 
                l(1) =   0
                l(2) =   0
                l(3) =   1
                l(4) =   1
                l(5) =   2
                l(6) =   2
                l(7) =   3
                l(8) =   3

     PseudoPot. # 2 for Se read from file:
     ./Se.upf
     MD5 check sum: 3cc46b3642295b3f4fdae63b742ce36d
     Pseudo is Norm-conserving + core correction, Zval = 16.0
     Generated using ONCVPSP code by D. R. Hamann
     Using radial grid of 1214 points,  6 beta functions with: 
                l(1) =   0
                l(2) =   0
                l(3) =   1
                l(4) =   1
                l(5) =   2
                l(6) =   2

     atomic species   valence    mass     pseudopotential
        Pt            18.00   195.08400     Pt( 1.00)
        Se            16.00    78.96000     Se( 1.00)

     12 Sym. Ops., with inversion, found



   Cartesian axes

     site n.     atom                  positions (alat units)
         1           Pt  tau(   1) = (   0.0000000   0.0000000   0.0000000  )
         2           Se  tau(   2) = (   0.4954747   0.2860619   0.9791000  )
         3           Se  tau(   3) = (  -0.0000005   0.5721246   0.3547718  )

     number of k points=  2002  Methfessel-Paxton smearing, width (Ry)=  0.0080

     Number of k-points >= 100: set verbosity='high' to print them.

     Dense  grid:    63657 G-vectors     FFT dimensions: (  48,  48,  64)

     Estimated max dynamical RAM per process >      11.73 MB

     Estimated total dynamical RAM >     281.63 MB

     The potential is recalculated from file :
     .//lscratch.bUPtSe2/HP/bUPtSe2.save/charge-density


     STARTING HUBBARD OCCUPATIONS:

     =================== HUBBARD OCCUPATIONS ===================
     ------------------------ ATOM    1 ------------------------
     Tr[ns(  1)] =   8.74060
     eigenvalues:
       0.719  0.719  0.975  0.979  0.979
     eigenvectors (columns):
       0.000  0.000 -1.000 -0.000  0.000
      -0.419  0.691  0.000 -0.560  0.185
       0.691  0.419  0.000  0.185  0.560
       0.504  0.306 -0.000 -0.253 -0.767
      -0.306  0.504 -0.000  0.767 -0.253
     occupation matrix ns (before diag.):
       0.975 -0.000 -0.000 -0.000 -0.000
      -0.000  0.809 -0.000  0.000 -0.124
      -0.000 -0.000  0.809 -0.124 -0.000
      -0.000  0.000 -0.124  0.888  0.000
      -0.000 -0.124 -0.000  0.000  0.888

     Number of occupied Hubbard levels =    8.7406

     Atomic wfc used for Hubbard projectors are orthogonalized

     Starting wfcs are   28 atomic +    2 random wfcs

     Band Structure Calculation
     Davidson diagonalization with overlap

     ethr =  1.00E-11,  avg # of iterations = 18.1

     total cpu time spent up to now is       -1.0 secs

     End of band structure calculation

     Number of k-points >= 100: set verbosity='high' to print the bands.

     the Fermi energy is    13.8417 ev
     (compare with:    13.8421 eV, computed in scf)

     Writing all to output data dir .//lscratch.bUPtSe2/HP/bUPtSe2.save/
     Done!

                   WRITING LINEAR-RESPONSE SUMMARY:


     Number of symmetries in the small group of q, nsymq =  2

     Symmetry matrices (and vectors of fractional translations if f/=0):

     isym =  1     identity                                     

     cryst.   s( 1) = (     1          0          0      )
                      (     0          1          0      )
                      (     0          0          1      )

     cart.    s( 1) = (  1.0000000  0.0000000  0.0000000 )
                      (  0.0000000  1.0000000  0.0000000 )
                      (  0.0000000  0.0000000  1.0000000 )


     isym =  2     inv. 180 deg rotation - cart. axis [1,0,0]   

     cryst.   s( 2) = (    -1          0          0      )
                      (     1          1          0      )
                      (     0          0          1      )

     cart.    s( 2) = ( -1.0000000 -0.0000000  0.0000000 )
                      (  0.0000000  1.0000000  0.0000000 )
                      (  0.0000000  0.0000000  1.0000000 )


     G cutoff =  562.9857  (   2650 G-vectors)     FFT grid: ( 48, 48, 64)

     Number of k (and k+q if q/=0) points =  2002  Methfessel-Paxton smearing, width (Ry) =  0.0080

                       cart. coord. (in units 2pi/alat)
        k (    1) = (   0.0000000   0.0000000   0.0000000), wk = 0.0010758
        k (    2) = (   0.0000000   0.2913120   0.0000000), wk = 0.0000000
        k (    3) = (   0.0000000   0.0000000   0.0681543), wk = 0.0010758
        k (    4) = (   0.0000000   0.2913120   0.0681543), wk = 0.0000000
        k (    5) = (   0.0000000   0.0000000   0.1363086), wk = 0.0010758
        k (    6) = (   0.0000000   0.2913120   0.1363086), wk = 0.0000000
        k (    7) = (   0.0000000   0.0000000   0.2044629), wk = 0.0010758
        k (    8) = (   0.0000000   0.2913120   0.2044629), wk = 0.0000000
        k (    9) = (   0.0000000   0.0000000   0.2726172), wk = 0.0010758
        k (   10) = (   0.0000000   0.2913120   0.2726172), wk = 0.0000000
        k (   11) = (   0.0000000   0.0000000   0.3407715), wk = 0.0010758
        k (   12) = (   0.0000000   0.2913120   0.3407715), wk = 0.0000000
        k (   13) = (   0.0000000   0.0896345   0.0000000), wk = 0.0010758
        k (   14) = (   0.0000000   0.3809464   0.0000000), wk = 0.0000000
        k (   15) = (   0.0000000   0.0896345   0.0681543), wk = 0.0010758
        k (   16) = (   0.0000000   0.3809464   0.0681543), wk = 0.0000000
        k (   17) = (   0.0000000   0.0896345   0.1363086), wk = 0.0010758
        k (   18) = (   0.0000000   0.3809464   0.1363086), wk = 0.0000000
        k (   19) = (   0.0000000   0.0896345   0.2044629), wk = 0.0010758
        k (   20) = (   0.0000000   0.3809464   0.2044629), wk = 0.0000000
        k (   21) = (   0.0000000   0.0896345   0.2726172), wk = 0.0010758
        k (   22) = (   0.0000000   0.3809464   0.2726172), wk = 0.0000000
        k (   23) = (   0.0000000   0.0896345   0.3407715), wk = 0.0010758
        k (   24) = (   0.0000000   0.3809464   0.3407715), wk = 0.0000000
        k (   25) = (   0.0000000   0.1792689   0.0000000), wk = 0.0010758
        k (   26) = (   0.0000000   0.4705809   0.0000000), wk = 0.0000000
        k (   27) = (   0.0000000   0.1792689   0.0681543), wk = 0.0010758
        k (   28) = (   0.0000000   0.4705809   0.0681543), wk = 0.0000000
        k (   29) = (   0.0000000   0.1792689   0.1363086), wk = 0.0010758
        k (   30) = (   0.0000000   0.4705809   0.1363086), wk = 0.0000000
        k (   31) = (   0.0000000   0.1792689   0.2044629), wk = 0.0010758
        k (   32) = (   0.0000000   0.4705809   0.2044629), wk = 0.0000000
        k (   33) = (   0.0000000   0.1792689   0.2726172), wk = 0.0010758
        k (   34) = (   0.0000000   0.4705809   0.2726172), wk = 0.0000000
        k (   35) = (   0.0000000   0.1792689   0.3407715), wk = 0.0010758
        k (   36) = (   0.0000000   0.4705809   0.3407715), wk = 0.0000000
        k (   37) = (   0.0000000   0.2689034   0.0000000), wk = 0.0010758
        k (   38) = (   0.0000000   0.5602153   0.0000000), wk = 0.0000000
        k (   39) = (   0.0000000   0.2689034   0.0681543), wk = 0.0010758
        k (   40) = (   0.0000000   0.5602153   0.0681543), wk = 0.0000000
        k (   41) = (   0.0000000   0.2689034   0.1363086), wk = 0.0010758
        k (   42) = (   0.0000000   0.5602153   0.1363086), wk = 0.0000000
        k (   43) = (   0.0000000   0.2689034   0.2044629), wk = 0.0010758
        k (   44) = (   0.0000000   0.5602153   0.2044629), wk = 0.0000000
        k (   45) = (   0.0000000   0.2689034   0.2726172), wk = 0.0010758
        k (   46) = (   0.0000000   0.5602153   0.2726172), wk = 0.0000000
        k (   47) = (   0.0000000   0.2689034   0.3407715), wk = 0.0010758
        k (   48) = (   0.0000000   0.5602153   0.3407715), wk = 0.0000000
        k (   49) = (   0.0000000   0.3585378   0.0000000), wk = 0.0010758
        k (   50) = (   0.0000000   0.6498498   0.0000000), wk = 0.0000000
        k (   51) = (   0.0000000   0.3585378   0.0681543), wk = 0.0010758
        k (   52) = (   0.0000000   0.6498498   0.0681543), wk = 0.0000000
        k (   53) = (   0.0000000   0.3585378   0.1363086), wk = 0.0010758
        k (   54) = (   0.0000000   0.6498498   0.1363086), wk = 0.0000000
        k (   55) = (   0.0000000   0.3585378   0.2044629), wk = 0.0010758
        k (   56) = (   0.0000000   0.6498498   0.2044629), wk = 0.0000000
        k (   57) = (   0.0000000   0.3585378   0.2726172), wk = 0.0010758
        k (   58) = (   0.0000000   0.6498498   0.2726172), wk = 0.0000000
        k (   59) = (   0.0000000   0.3585378   0.3407715), wk = 0.0010758
        k (   60) = (   0.0000000   0.6498498   0.3407715), wk = 0.0000000
        k (   61) = (   0.0000000   0.4481723   0.0000000), wk = 0.0010758
        k (   62) = (   0.0000000   0.7394843   0.0000000), wk = 0.0000000
        k (   63) = (   0.0000000   0.4481723   0.0681543), wk = 0.0010758
        k (   64) = (   0.0000000   0.7394843   0.0681543), wk = 0.0000000
        k (   65) = (   0.0000000   0.4481723   0.1363086), wk = 0.0010758
        k (   66) = (   0.0000000   0.7394843   0.1363086), wk = 0.0000000
        k (   67) = (   0.0000000   0.4481723   0.2044629), wk = 0.0010758
        k (   68) = (   0.0000000   0.7394843   0.2044629), wk = 0.0000000
        k (   69) = (   0.0000000   0.4481723   0.2726172), wk = 0.0010758
        k (   70) = (   0.0000000   0.7394843   0.2726172), wk = 0.0000000
        k (   71) = (   0.0000000   0.4481723   0.3407715), wk = 0.0010758
        k (   72) = (   0.0000000   0.7394843   0.3407715), wk = 0.0000000
        k (   73) = (   0.0000000   0.5378067   0.0000000), wk = 0.0010758
        k (   74) = (   0.0000000   0.8291187   0.0000000), wk = 0.0000000
        k (   75) = (   0.0000000   0.5378067   0.0681543), wk = 0.0010758
        k (   76) = (   0.0000000   0.8291187   0.0681543), wk = 0.0000000
        k (   77) = (   0.0000000   0.5378067   0.1363086), wk = 0.0010758
        k (   78) = (   0.0000000   0.8291187   0.1363086), wk = 0.0000000
        k (   79) = (   0.0000000   0.5378067   0.2044629), wk = 0.0010758
        k (   80) = (   0.0000000   0.8291187   0.2044629), wk = 0.0000000
        k (   81) = (   0.0000000   0.5378067   0.2726172), wk = 0.0010758
        k (   82) = (   0.0000000   0.8291187   0.2726172), wk = 0.0000000
        k (   83) = (   0.0000000   0.5378067   0.3407715), wk = 0.0010758
        k (   84) = (   0.0000000   0.8291187   0.3407715), wk = 0.0000000
        k (   85) = (   0.0776257   0.1344517   0.0000000), wk = 0.0021517
        k (   86) = (   0.0776257   0.4257637   0.0000000), wk = 0.0000000
        k (   87) = (   0.0776257   0.1344517   0.0681543), wk = 0.0021517
        k (   88) = (   0.0776257   0.4257637   0.0681543), wk = 0.0000000
        k (   89) = (   0.0776257   0.1344517   0.1363086), wk = 0.0021517
        k (   90) = (   0.0776257   0.4257637   0.1363086), wk = 0.0000000
        k (   91) = (   0.0776257   0.1344517   0.2044629), wk = 0.0021517
        k (   92) = (   0.0776257   0.4257637   0.2044629), wk = 0.0000000
        k (   93) = (   0.0776257   0.1344517   0.2726172), wk = 0.0021517
        k (   94) = (   0.0776257   0.4257637   0.2726172), wk = 0.0000000
        k (   95) = (   0.0776257   0.1344517   0.3407715), wk = 0.0021517
        k (   96) = (   0.0776257   0.4257637   0.3407715), wk = 0.0000000
        k (   97) = (   0.0776257   0.2240861   0.0000000), wk = 0.0021517
        k (   98) = (   0.0776257   0.5153981   0.0000000), wk = 0.0000000
        k (   99) = (   0.0776257   0.2240861   0.0681543), wk = 0.0021517
        k (  100) = (   0.0776257   0.5153981   0.0681543), wk = 0.0000000
        k (  101) = (   0.0776257   0.2240861   0.1363086), wk = 0.0021517
        k (  102) = (   0.0776257   0.5153981   0.1363086), wk = 0.0000000
        k (  103) = (   0.0776257   0.2240861   0.2044629), wk = 0.0021517
        k (  104) = (   0.0776257   0.5153981   0.2044629), wk = 0.0000000
        k (  105) = (   0.0776257   0.2240861   0.2726172), wk = 0.0021517
        k (  106) = (   0.0776257   0.5153981   0.2726172), wk = 0.0000000
        k (  107) = (   0.0776257   0.2240861   0.3407715), wk = 0.0021517
        k (  108) = (   0.0776257   0.5153981   0.3407715), wk = 0.0000000
        k (  109) = (   0.0776257   0.3137206   0.0000000), wk = 0.0021517
        k (  110) = (   0.0776257   0.6050326   0.0000000), wk = 0.0000000
        k (  111) = (   0.0776257   0.3137206   0.0681543), wk = 0.0021517
        k (  112) = (   0.0776257   0.6050326   0.0681543), wk = 0.0000000
        k (  113) = (   0.0776257   0.3137206   0.1363086), wk = 0.0021517
        k (  114) = (   0.0776257   0.6050326   0.1363086), wk = 0.0000000
        k (  115) = (   0.0776257   0.3137206   0.2044629), wk = 0.0021517
        k (  116) = (   0.0776257   0.6050326   0.2044629), wk = 0.0000000
        k (  117) = (   0.0776257   0.3137206   0.2726172), wk = 0.0021517
        k (  118) = (   0.0776257   0.6050326   0.2726172), wk = 0.0000000
        k (  119) = (   0.0776257   0.3137206   0.3407715), wk = 0.0021517
        k (  120) = (   0.0776257   0.6050326   0.3407715), wk = 0.0000000
        k (  121) = (   0.0776257   0.4033550   0.0000000), wk = 0.0021517
        k (  122) = (   0.0776257   0.6946670   0.0000000), wk = 0.0000000
        k (  123) = (   0.0776257   0.4033550   0.0681543), wk = 0.0021517
        k (  124) = (   0.0776257   0.6946670   0.0681543), wk = 0.0000000
        k (  125) = (   0.0776257   0.4033550   0.1363086), wk = 0.0021517
        k (  126) = (   0.0776257   0.6946670   0.1363086), wk = 0.0000000
        k (  127) = (   0.0776257   0.4033550   0.2044629), wk = 0.0021517
        k (  128) = (   0.0776257   0.6946670   0.2044629), wk = 0.0000000
        k (  129) = (   0.0776257   0.4033550   0.2726172), wk = 0.0021517
        k (  130) = (   0.0776257   0.6946670   0.2726172), wk = 0.0000000
        k (  131) = (   0.0776257   0.4033550   0.3407715), wk = 0.0021517
        k (  132) = (   0.0776257   0.6946670   0.3407715), wk = 0.0000000
        k (  133) = (   0.0776257   0.4929895   0.0000000), wk = 0.0021517
        k (  134) = (   0.0776257   0.7843015   0.0000000), wk = 0.0000000
        k (  135) = (   0.0776257   0.4929895   0.0681543), wk = 0.0021517
        k (  136) = (   0.0776257   0.7843015   0.0681543), wk = 0.0000000
        k (  137) = (   0.0776257   0.4929895   0.1363086), wk = 0.0021517
        k (  138) = (   0.0776257   0.7843015   0.1363086), wk = 0.0000000
        k (  139) = (   0.0776257   0.4929895   0.2044629), wk = 0.0021517
        k (  140) = (   0.0776257   0.7843015   0.2044629), wk = 0.0000000
        k (  141) = (   0.0776257   0.4929895   0.2726172), wk = 0.0021517
        k (  142) = (   0.0776257   0.7843015   0.2726172), wk = 0.0000000
        k (  143) = (   0.0776257   0.4929895   0.3407715), wk = 0.0021517
        k (  144) = (   0.0776257   0.7843015   0.3407715), wk = 0.0000000
        k (  145) = (   0.0776257   0.5826240   0.0000000), wk = 0.0021517
        k (  146) = (   0.0776257   0.8739359   0.0000000), wk = 0.0000000
        k (  147) = (   0.0776257   0.5826240   0.0681543), wk = 0.0021517
        k (  148) = (   0.0776257   0.8739359   0.0681543), wk = 0.0000000
        k (  149) = (   0.0776257   0.5826240   0.1363086), wk = 0.0021517
        k (  150) = (   0.0776257   0.8739359   0.1363086), wk = 0.0000000
        k (  151) = (   0.0776257   0.5826240   0.2044629), wk = 0.0021517
        k (  152) = (   0.0776257   0.8739359   0.2044629), wk = 0.0000000
        k (  153) = (   0.0776257   0.5826240   0.2726172), wk = 0.0021517
        k (  154) = (   0.0776257   0.8739359   0.2726172), wk = 0.0000000
        k (  155) = (   0.0776257   0.5826240   0.3407715), wk = 0.0021517
        k (  156) = (   0.0776257   0.8739359   0.3407715), wk = 0.0000000
        k (  157) = (   0.1552514   0.2689034   0.0000000), wk = 0.0021517
        k (  158) = (   0.1552514   0.5602153   0.0000000), wk = 0.0000000
        k (  159) = (   0.1552514   0.2689034   0.0681543), wk = 0.0021517
        k (  160) = (   0.1552514   0.5602153   0.0681543), wk = 0.0000000
        k (  161) = (   0.1552514   0.2689034   0.1363086), wk = 0.0021517
        k (  162) = (   0.1552514   0.5602153   0.1363086), wk = 0.0000000
        k (  163) = (   0.1552514   0.2689034   0.2044629), wk = 0.0021517
        k (  164) = (   0.1552514   0.5602153   0.2044629), wk = 0.0000000
        k (  165) = (   0.1552514   0.2689034   0.2726172), wk = 0.0021517
        k (  166) = (   0.1552514   0.5602153   0.2726172), wk = 0.0000000
        k (  167) = (   0.1552514   0.2689034   0.3407715), wk = 0.0021517
        k (  168) = (   0.1552514   0.5602153   0.3407715), wk = 0.0000000
        k (  169) = (   0.1552514   0.3585378   0.0000000), wk = 0.0021517
        k (  170) = (   0.1552514   0.6498498   0.0000000), wk = 0.0000000
        k (  171) = (   0.1552514   0.3585378   0.0681543), wk = 0.0021517
        k (  172) = (   0.1552514   0.6498498   0.0681543), wk = 0.0000000
        k (  173) = (   0.1552514   0.3585378   0.1363086), wk = 0.0021517
        k (  174) = (   0.1552514   0.6498498   0.1363086), wk = 0.0000000
        k (  175) = (   0.1552514   0.3585378   0.2044629), wk = 0.0021517
        k (  176) = (   0.1552514   0.6498498   0.2044629), wk = 0.0000000
        k (  177) = (   0.1552514   0.3585378   0.2726172), wk = 0.0021517
        k (  178) = (   0.1552514   0.6498498   0.2726172), wk = 0.0000000
        k (  179) = (   0.1552514   0.3585378   0.3407715), wk = 0.0021517
        k (  180) = (   0.1552514   0.6498498   0.3407715), wk = 0.0000000
        k (  181) = (   0.1552514   0.4481723   0.0000000), wk = 0.0021517
        k (  182) = (   0.1552514   0.7394843   0.0000000), wk = 0.0000000
        k (  183) = (   0.1552514   0.4481723   0.0681543), wk = 0.0021517
        k (  184) = (   0.1552514   0.7394843   0.0681543), wk = 0.0000000
        k (  185) = (   0.1552514   0.4481723   0.1363086), wk = 0.0021517
        k (  186) = (   0.1552514   0.7394843   0.1363086), wk = 0.0000000
        k (  187) = (   0.1552514   0.4481723   0.2044629), wk = 0.0021517
        k (  188) = (   0.1552514   0.7394843   0.2044629), wk = 0.0000000
        k (  189) = (   0.1552514   0.4481723   0.2726172), wk = 0.0021517
        k (  190) = (   0.1552514   0.7394843   0.2726172), wk = 0.0000000
        k (  191) = (   0.1552514   0.4481723   0.3407715), wk = 0.0021517
        k (  192) = (   0.1552514   0.7394843   0.3407715), wk = 0.0000000
        k (  193) = (   0.1552514   0.5378067   0.0000000), wk = 0.0021517
        k (  194) = (   0.1552514   0.8291187   0.0000000), wk = 0.0000000
        k (  195) = (   0.1552514   0.5378067   0.0681543), wk = 0.0021517
        k (  196) = (   0.1552514   0.8291187   0.0681543), wk = 0.0000000
        k (  197) = (   0.1552514   0.5378067   0.1363086), wk = 0.0021517
        k (  198) = (   0.1552514   0.8291187   0.1363086), wk = 0.0000000
        k (  199) = (   0.1552514   0.5378067   0.2044629), wk = 0.0021517
        k (  200) = (   0.1552514   0.8291187   0.2044629), wk = 0.0000000
        k (  201) = (   0.1552514   0.5378067   0.2726172), wk = 0.0021517
        k (  202) = (   0.1552514   0.8291187   0.2726172), wk = 0.0000000
        k (  203) = (   0.1552514   0.5378067   0.3407715), wk = 0.0021517
        k (  204) = (   0.1552514   0.8291187   0.3407715), wk = 0.0000000
        k (  205) = (   0.2328771   0.4033550   0.0000000), wk = 0.0021517
        k (  206) = (   0.2328771   0.6946670   0.0000000), wk = 0.0000000
        k (  207) = (   0.2328771   0.4033550   0.0681543), wk = 0.0021517
        k (  208) = (   0.2328771   0.6946670   0.0681543), wk = 0.0000000
        k (  209) = (   0.2328771   0.4033550   0.1363086), wk = 0.0021517
        k (  210) = (   0.2328771   0.6946670   0.1363086), wk = 0.0000000
        k (  211) = (   0.2328771   0.4033550   0.2044629), wk = 0.0021517
        k (  212) = (   0.2328771   0.6946670   0.2044629), wk = 0.0000000
        k (  213) = (   0.2328771   0.4033550   0.2726172), wk = 0.0021517
        k (  214) = (   0.2328771   0.6946670   0.2726172), wk = 0.0000000
        k (  215) = (   0.2328771   0.4033550   0.3407715), wk = 0.0021517
        k (  216) = (   0.2328771   0.6946670   0.3407715), wk = 0.0000000
        k (  217) = (   0.2328771   0.4929895   0.0000000), wk = 0.0021517
        k (  218) = (   0.2328771   0.7843015   0.0000000), wk = 0.0000000
        k (  219) = (   0.2328771   0.4929895   0.0681543), wk = 0.0021517
        k (  220) = (   0.2328771   0.7843015   0.0681543), wk = 0.0000000
        k (  221) = (   0.2328771   0.4929895   0.1363086), wk = 0.0021517
        k (  222) = (   0.2328771   0.7843015   0.1363086), wk = 0.0000000
        k (  223) = (   0.2328771   0.4929895   0.2044629), wk = 0.0021517
        k (  224) = (   0.2328771   0.7843015   0.2044629), wk = 0.0000000
        k (  225) = (   0.2328771   0.4929895   0.2726172), wk = 0.0021517
        k (  226) = (   0.2328771   0.7843015   0.2726172), wk = 0.0000000
        k (  227) = (   0.2328771   0.4929895   0.3407715), wk = 0.0021517
        k (  228) = (   0.2328771   0.7843015   0.3407715), wk = 0.0000000
        k (  229) = (   0.2328771   0.5826240   0.0000000), wk = 0.0021517
        k (  230) = (   0.2328771   0.8739359   0.0000000), wk = 0.0000000
        k (  231) = (   0.2328771   0.5826240   0.0681543), wk = 0.0021517
        k (  232) = (   0.2328771   0.8739359   0.0681543), wk = 0.0000000
        k (  233) = (   0.2328771   0.5826240   0.1363086), wk = 0.0021517
        k (  234) = (   0.2328771   0.8739359   0.1363086), wk = 0.0000000
        k (  235) = (   0.2328771   0.5826240   0.2044629), wk = 0.0021517
        k (  236) = (   0.2328771   0.8739359   0.2044629), wk = 0.0000000
        k (  237) = (   0.2328771   0.5826240   0.2726172), wk = 0.0021517
        k (  238) = (   0.2328771   0.8739359   0.2726172), wk = 0.0000000
        k (  239) = (   0.2328771   0.5826240   0.3407715), wk = 0.0021517
        k (  240) = (   0.2328771   0.8739359   0.3407715), wk = 0.0000000
        k (  241) = (   0.3105029   0.5378067   0.0000000), wk = 0.0021517
        k (  242) = (   0.3105029   0.8291187   0.0000000), wk = 0.0000000
        k (  243) = (   0.3105029   0.5378067   0.0681543), wk = 0.0021517
        k (  244) = (   0.3105029   0.8291187   0.0681543), wk = 0.0000000
        k (  245) = (   0.3105029   0.5378067   0.1363086), wk = 0.0021517
        k (  246) = (   0.3105029   0.8291187   0.1363086), wk = 0.0000000
        k (  247) = (   0.3105029   0.5378067   0.2044629), wk = 0.0021517
        k (  248) = (   0.3105029   0.8291187   0.2044629), wk = 0.0000000
        k (  249) = (   0.3105029   0.5378067   0.2726172), wk = 0.0021517
        k (  250) = (   0.3105029   0.8291187   0.2726172), wk = 0.0000000
        k (  251) = (   0.3105029   0.5378067   0.3407715), wk = 0.0021517
        k (  252) = (   0.3105029   0.8291187   0.3407715), wk = 0.0000000
        k (  253) = (   0.0000000   0.0000000  -0.0681543), wk = 0.0010758
        k (  254) = (   0.0000000   0.2913120  -0.0681543), wk = 0.0000000
        k (  255) = (   0.0000000   0.0000000  -0.1363086), wk = 0.0010758
        k (  256) = (   0.0000000   0.2913120  -0.1363086), wk = 0.0000000
        k (  257) = (   0.0000000   0.0000000  -0.2044629), wk = 0.0010758
        k (  258) = (   0.0000000   0.2913120  -0.2044629), wk = 0.0000000
        k (  259) = (   0.0000000   0.0000000  -0.2726172), wk = 0.0010758
        k (  260) = (   0.0000000   0.2913120  -0.2726172), wk = 0.0000000
        k (  261) = (   0.0000000   0.0000000  -0.3407715), wk = 0.0010758
        k (  262) = (   0.0000000   0.2913120  -0.3407715), wk = 0.0000000
        k (  263) = (  -0.0776257  -0.0448172   0.0000000), wk = 0.0021517
        k (  264) = (  -0.0776257   0.2464948   0.0000000), wk = 0.0000000
        k (  265) = (  -0.0776257   0.0448172   0.0000000), wk = 0.0021517
        k (  266) = (  -0.0776257   0.3361292   0.0000000), wk = 0.0000000
        k (  267) = (   0.0000000  -0.0896345   0.0000000), wk = 0.0010758
        k (  268) = (   0.0000000   0.2016775   0.0000000), wk = 0.0000000
        k (  269) = (  -0.0776257  -0.0448172   0.0681543), wk = 0.0021517
        k (  270) = (  -0.0776257   0.2464948   0.0681543), wk = 0.0000000
        k (  271) = (  -0.0776257   0.0448172  -0.0681543), wk = 0.0021517
        k (  272) = (  -0.0776257   0.3361292  -0.0681543), wk = 0.0000000
        k (  273) = (   0.0000000  -0.0896345  -0.0681543), wk = 0.0010758
        k (  274) = (   0.0000000   0.2016775  -0.0681543), wk = 0.0000000
        k (  275) = (   0.0000000   0.0896345  -0.0681543), wk = 0.0010758
        k (  276) = (   0.0000000   0.3809464  -0.0681543), wk = 0.0000000
        k (  277) = (   0.0000000  -0.0896345   0.0681543), wk = 0.0010758
        k (  278) = (   0.0000000   0.2016775   0.0681543), wk = 0.0000000
        k (  279) = (   0.0776257  -0.0448172  -0.0681543), wk = 0.0021517
        k (  280) = (   0.0776257   0.2464948  -0.0681543), wk = 0.0000000
        k (  281) = (   0.0776257   0.0448172   0.0681543), wk = 0.0021517
        k (  282) = (   0.0776257   0.3361292   0.0681543), wk = 0.0000000
        k (  283) = (  -0.0776257  -0.0448172   0.1363086), wk = 0.0021517
        k (  284) = (  -0.0776257   0.2464948   0.1363086), wk = 0.0000000
        k (  285) = (  -0.0776257   0.0448172  -0.1363086), wk = 0.0021517
        k (  286) = (  -0.0776257   0.3361292  -0.1363086), wk = 0.0000000
        k (  287) = (   0.0000000  -0.0896345  -0.1363086), wk = 0.0010758
        k (  288) = (   0.0000000   0.2016775  -0.1363086), wk = 0.0000000
        k (  289) = (   0.0000000   0.0896345  -0.1363086), wk = 0.0010758
        k (  290) = (   0.0000000   0.3809464  -0.1363086), wk = 0.0000000
        k (  291) = (   0.0000000  -0.0896345   0.1363086), wk = 0.0010758
        k (  292) = (   0.0000000   0.2016775   0.1363086), wk = 0.0000000
        k (  293) = (   0.0776257  -0.0448172  -0.1363086), wk = 0.0021517
        k (  294) = (   0.0776257   0.2464948  -0.1363086), wk = 0.0000000
        k (  295) = (   0.0776257   0.0448172   0.1363086), wk = 0.0021517
        k (  296) = (   0.0776257   0.3361292   0.1363086), wk = 0.0000000
        k (  297) = (  -0.0776257  -0.0448172   0.2044629), wk = 0.0021517
        k (  298) = (  -0.0776257   0.2464948   0.2044629), wk = 0.0000000
        k (  299) = (  -0.0776257   0.0448172  -0.2044629), wk = 0.0021517
        k (  300) = (  -0.0776257   0.3361292  -0.2044629), wk = 0.0000000
        k (  301) = (   0.0000000  -0.0896345  -0.2044629), wk = 0.0010758
        k (  302) = (   0.0000000   0.2016775  -0.2044629), wk = 0.0000000
        k (  303) = (   0.0000000   0.0896345  -0.2044629), wk = 0.0010758
        k (  304) = (   0.0000000   0.3809464  -0.2044629), wk = 0.0000000
        k (  305) = (   0.0000000  -0.0896345   0.2044629), wk = 0.0010758
        k (  306) = (   0.0000000   0.2016775   0.2044629), wk = 0.0000000
        k (  307) = (   0.0776257  -0.0448172  -0.2044629), wk = 0.0021517
        k (  308) = (   0.0776257   0.2464948  -0.2044629), wk = 0.0000000
        k (  309) = (   0.0776257   0.0448172   0.2044629), wk = 0.0021517
        k (  310) = (   0.0776257   0.3361292   0.2044629), wk = 0.0000000
        k (  311) = (  -0.0776257  -0.0448172   0.2726172), wk = 0.0021517
        k (  312) = (  -0.0776257   0.2464948   0.2726172), wk = 0.0000000
        k (  313) = (  -0.0776257   0.0448172  -0.2726172), wk = 0.0021517
        k (  314) = (  -0.0776257   0.3361292  -0.2726172), wk = 0.0000000
        k (  315) = (   0.0000000  -0.0896345  -0.2726172), wk = 0.0010758
        k (  316) = (   0.0000000   0.2016775  -0.2726172), wk = 0.0000000
        k (  317) = (   0.0000000   0.0896345  -0.2726172), wk = 0.0010758
        k (  318) = (   0.0000000   0.3809464  -0.2726172), wk = 0.0000000
        k (  319) = (   0.0000000  -0.0896345   0.2726172), wk = 0.0010758
        k (  320) = (   0.0000000   0.2016775   0.2726172), wk = 0.0000000
        k (  321) = (   0.0776257  -0.0448172  -0.2726172), wk = 0.0021517
        k (  322) = (   0.0776257   0.2464948  -0.2726172), wk = 0.0000000
        k (  323) = (   0.0776257   0.0448172   0.2726172), wk = 0.0021517
        k (  324) = (   0.0776257   0.3361292   0.2726172), wk = 0.0000000
        k (  325) = (  -0.0776257  -0.0448172   0.3407715), wk = 0.0021517
        k (  326) = (  -0.0776257   0.2464948   0.3407715), wk = 0.0000000
        k (  327) = (  -0.0776257   0.0448172  -0.3407715), wk = 0.0021517
        k (  328) = (  -0.0776257   0.3361292  -0.3407715), wk = 0.0000000
        k (  329) = (   0.0000000  -0.0896345  -0.3407715), wk = 0.0010758
        k (  330) = (   0.0000000   0.2016775  -0.3407715), wk = 0.0000000
        k (  331) = (   0.0000000   0.0896345  -0.3407715), wk = 0.0010758
        k (  332) = (   0.0000000   0.3809464  -0.3407715), wk = 0.0000000
        k (  333) = (   0.0000000  -0.0896345   0.3407715), wk = 0.0010758
        k (  334) = (   0.0000000   0.2016775   0.3407715), wk = 0.0000000
        k (  335) = (   0.0776257  -0.0448172  -0.3407715), wk = 0.0021517
        k (  336) = (   0.0776257   0.2464948  -0.3407715), wk = 0.0000000
        k (  337) = (   0.0776257   0.0448172   0.3407715), wk = 0.0021517
        k (  338) = (   0.0776257   0.3361292   0.3407715), wk = 0.0000000
        k (  339) = (  -0.1552514  -0.0896345   0.0000000), wk = 0.0021517
        k (  340) = (  -0.1552514   0.2016775   0.0000000), wk = 0.0000000
        k (  341) = (  -0.1552514   0.0896345   0.0000000), wk = 0.0021517
        k (  342) = (  -0.1552514   0.3809464   0.0000000), wk = 0.0000000
        k (  343) = (   0.0000000  -0.1792689   0.0000000), wk = 0.0010758
        k (  344) = (   0.0000000   0.1120431   0.0000000), wk = 0.0000000
        k (  345) = (  -0.1552514  -0.0896345   0.0681543), wk = 0.0021517
        k (  346) = (  -0.1552514   0.2016775   0.0681543), wk = 0.0000000
        k (  347) = (  -0.1552514   0.0896345  -0.0681543), wk = 0.0021517
        k (  348) = (  -0.1552514   0.3809464  -0.0681543), wk = 0.0000000
        k (  349) = (   0.0000000  -0.1792689  -0.0681543), wk = 0.0010758
        k (  350) = (   0.0000000   0.1120431  -0.0681543), wk = 0.0000000
        k (  351) = (   0.0000000   0.1792689  -0.0681543), wk = 0.0010758
        k (  352) = (   0.0000000   0.4705809  -0.0681543), wk = 0.0000000
        k (  353) = (   0.0000000  -0.1792689   0.0681543), wk = 0.0010758
        k (  354) = (   0.0000000   0.1120431   0.0681543), wk = 0.0000000
        k (  355) = (   0.1552514  -0.0896345  -0.0681543), wk = 0.0021517
        k (  356) = (   0.1552514   0.2016775  -0.0681543), wk = 0.0000000
        k (  357) = (   0.1552514   0.0896345   0.0681543), wk = 0.0021517
        k (  358) = (   0.1552514   0.3809464   0.0681543), wk = 0.0000000
        k (  359) = (  -0.1552514  -0.0896345   0.1363086), wk = 0.0021517
        k (  360) = (  -0.1552514   0.2016775   0.1363086), wk = 0.0000000
        k (  361) = (  -0.1552514   0.0896345  -0.1363086), wk = 0.0021517
        k (  362) = (  -0.1552514   0.3809464  -0.1363086), wk = 0.0000000
        k (  363) = (   0.0000000  -0.1792689  -0.1363086), wk = 0.0010758
        k (  364) = (   0.0000000   0.1120431  -0.1363086), wk = 0.0000000
        k (  365) = (   0.0000000   0.1792689  -0.1363086), wk = 0.0010758
        k (  366) = (   0.0000000   0.4705809  -0.1363086), wk = 0.0000000
        k (  367) = (   0.0000000  -0.1792689   0.1363086), wk = 0.0010758
        k (  368) = (   0.0000000   0.1120431   0.1363086), wk = 0.0000000
        k (  369) = (   0.1552514  -0.0896345  -0.1363086), wk = 0.0021517
        k (  370) = (   0.1552514   0.2016775  -0.1363086), wk = 0.0000000
        k (  371) = (   0.1552514   0.0896345   0.1363086), wk = 0.0021517
        k (  372) = (   0.1552514   0.3809464   0.1363086), wk = 0.0000000
        k (  373) = (  -0.1552514  -0.0896345   0.2044629), wk = 0.0021517
        k (  374) = (  -0.1552514   0.2016775   0.2044629), wk = 0.0000000
        k (  375) = (  -0.1552514   0.0896345  -0.2044629), wk = 0.0021517
        k (  376) = (  -0.1552514   0.3809464  -0.2044629), wk = 0.0000000
        k (  377) = (   0.0000000  -0.1792689  -0.2044629), wk = 0.0010758
        k (  378) = (   0.0000000   0.1120431  -0.2044629), wk = 0.0000000
        k (  379) = (   0.0000000   0.1792689  -0.2044629), wk = 0.0010758
        k (  380) = (   0.0000000   0.4705809  -0.2044629), wk = 0.0000000
        k (  381) = (   0.0000000  -0.1792689   0.2044629), wk = 0.0010758
        k (  382) = (   0.0000000   0.1120431   0.2044629), wk = 0.0000000
        k (  383) = (   0.1552514  -0.0896345  -0.2044629), wk = 0.0021517
        k (  384) = (   0.1552514   0.2016775  -0.2044629), wk = 0.0000000
        k (  385) = (   0.1552514   0.0896345   0.2044629), wk = 0.0021517
        k (  386) = (   0.1552514   0.3809464   0.2044629), wk = 0.0000000
        k (  387) = (  -0.1552514  -0.0896345   0.2726172), wk = 0.0021517
        k (  388) = (  -0.1552514   0.2016775   0.2726172), wk = 0.0000000
        k (  389) = (  -0.1552514   0.0896345  -0.2726172), wk = 0.0021517
        k (  390) = (  -0.1552514   0.3809464  -0.2726172), wk = 0.0000000
        k (  391) = (   0.0000000  -0.1792689  -0.2726172), wk = 0.0010758
        k (  392) = (   0.0000000   0.1120431  -0.2726172), wk = 0.0000000
        k (  393) = (   0.0000000   0.1792689  -0.2726172), wk = 0.0010758
        k (  394) = (   0.0000000   0.4705809  -0.2726172), wk = 0.0000000
[...]
        k ( 1741) = (   0.2307692  -0.5384615  -0.4545455), wk = 0.0021517
        k ( 1742) = (   0.4807692  -0.2884615  -0.4545455), wk = 0.0000000
        k ( 1743) = (  -0.5384615   0.3076923  -0.4545455), wk = 0.0021517
        k ( 1744) = (  -0.2884615   0.5576923  -0.4545455), wk = 0.0000000
        k ( 1745) = (  -0.2307692   0.5384615   0.4545455), wk = 0.0021517
        k ( 1746) = (   0.0192308   0.7884615   0.4545455), wk = 0.0000000
        k ( 1747) = (  -0.3076923   0.5384615  -0.4545455), wk = 0.0021517
        k ( 1748) = (  -0.0576923   0.7884615  -0.4545455), wk = 0.0000000
        k ( 1749) = (  -0.2307692   0.5384615  -0.4545455), wk = 0.0021517
        k ( 1750) = (   0.0192308   0.7884615  -0.4545455), wk = 0.0000000
        k ( 1751) = (   0.2307692   0.3076923  -0.4545455), wk = 0.0021517
        k ( 1752) = (   0.4807692   0.5576923  -0.4545455), wk = 0.0000000
        k ( 1753) = (   0.2307692  -0.5384615   0.4545455), wk = 0.0021517
        k ( 1754) = (   0.4807692  -0.2884615   0.4545455), wk = 0.0000000
        k ( 1755) = (  -0.2307692  -0.3076923   0.4545455), wk = 0.0021517
        k ( 1756) = (   0.0192308  -0.0576923   0.4545455), wk = 0.0000000
        k ( 1757) = (   0.3076923  -0.5384615  -0.4545455), wk = 0.0021517
        k ( 1758) = (   0.5576923  -0.2884615  -0.4545455), wk = 0.0000000
        k ( 1759) = (   0.5384615  -0.3076923  -0.4545455), wk = 0.0021517
        k ( 1760) = (   0.7884615  -0.0576923  -0.4545455), wk = 0.0000000
        k ( 1761) = (  -0.2307692  -0.3846154   0.0000000), wk = 0.0021517
        k ( 1762) = (   0.0192308  -0.1346154   0.0000000), wk = 0.0000000
        k ( 1763) = (  -0.6153846   0.3846154   0.0000000), wk = 0.0010758
        k ( 1764) = (  -0.3653846   0.6346154   0.0000000), wk = 0.0000000
        k ( 1765) = (  -0.3846154   0.6153846   0.0000000), wk = 0.0010758
        k ( 1766) = (  -0.1346154   0.8653846   0.0000000), wk = 0.0000000
        k ( 1767) = (  -0.2307692  -0.3846154  -0.0909091), wk = 0.0021517
        k ( 1768) = (   0.0192308  -0.1346154  -0.0909091), wk = 0.0000000
        k ( 1769) = (   0.2307692  -0.6153846  -0.0909091), wk = 0.0021517
        k ( 1770) = (   0.4807692  -0.3653846  -0.0909091), wk = 0.0000000
        k ( 1771) = (  -0.6153846   0.3846154  -0.0909091), wk = 0.0021517
        k ( 1772) = (  -0.3653846   0.6346154  -0.0909091), wk = 0.0000000
        k ( 1773) = (  -0.2307692   0.6153846   0.0909091), wk = 0.0021517
        k ( 1774) = (   0.0192308   0.8653846   0.0909091), wk = 0.0000000
        k ( 1775) = (  -0.3846154   0.6153846  -0.0909091), wk = 0.0021517
        k ( 1776) = (  -0.1346154   0.8653846  -0.0909091), wk = 0.0000000
        k ( 1777) = (  -0.2307692  -0.3846154  -0.1818182), wk = 0.0021517
        k ( 1778) = (   0.0192308  -0.1346154  -0.1818182), wk = 0.0000000
        k ( 1779) = (   0.2307692  -0.6153846  -0.1818182), wk = 0.0021517
        k ( 1780) = (   0.4807692  -0.3653846  -0.1818182), wk = 0.0000000
        k ( 1781) = (  -0.6153846   0.3846154  -0.1818182), wk = 0.0021517
        k ( 1782) = (  -0.3653846   0.6346154  -0.1818182), wk = 0.0000000
        k ( 1783) = (  -0.2307692   0.6153846   0.1818182), wk = 0.0021517
        k ( 1784) = (   0.0192308   0.8653846   0.1818182), wk = 0.0000000
        k ( 1785) = (  -0.3846154   0.6153846  -0.1818182), wk = 0.0021517
        k ( 1786) = (  -0.1346154   0.8653846  -0.1818182), wk = 0.0000000
        k ( 1787) = (  -0.2307692  -0.3846154  -0.2727273), wk = 0.0021517
        k ( 1788) = (   0.0192308  -0.1346154  -0.2727273), wk = 0.0000000
        k ( 1789) = (   0.2307692  -0.6153846  -0.2727273), wk = 0.0021517
        k ( 1790) = (   0.4807692  -0.3653846  -0.2727273), wk = 0.0000000
        k ( 1791) = (  -0.6153846   0.3846154  -0.2727273), wk = 0.0021517
        k ( 1792) = (  -0.3653846   0.6346154  -0.2727273), wk = 0.0000000
        k ( 1793) = (  -0.2307692   0.6153846   0.2727273), wk = 0.0021517
        k ( 1794) = (   0.0192308   0.8653846   0.2727273), wk = 0.0000000
        k ( 1795) = (  -0.3846154   0.6153846  -0.2727273), wk = 0.0021517
        k ( 1796) = (  -0.1346154   0.8653846  -0.2727273), wk = 0.0000000
        k ( 1797) = (  -0.2307692  -0.3846154  -0.3636364), wk = 0.0021517
        k ( 1798) = (   0.0192308  -0.1346154  -0.3636364), wk = 0.0000000
        k ( 1799) = (   0.2307692  -0.6153846  -0.3636364), wk = 0.0021517
        k ( 1800) = (   0.4807692  -0.3653846  -0.3636364), wk = 0.0000000
        k ( 1801) = (  -0.6153846   0.3846154  -0.3636364), wk = 0.0021517
        k ( 1802) = (  -0.3653846   0.6346154  -0.3636364), wk = 0.0000000
        k ( 1803) = (  -0.2307692   0.6153846   0.3636364), wk = 0.0021517
        k ( 1804) = (   0.0192308   0.8653846   0.3636364), wk = 0.0000000
        k ( 1805) = (  -0.3846154   0.6153846  -0.3636364), wk = 0.0021517
        k ( 1806) = (  -0.1346154   0.8653846  -0.3636364), wk = 0.0000000
        k ( 1807) = (  -0.2307692  -0.3846154  -0.4545455), wk = 0.0021517
        k ( 1808) = (   0.0192308  -0.1346154  -0.4545455), wk = 0.0000000
        k ( 1809) = (   0.2307692  -0.6153846  -0.4545455), wk = 0.0021517
        k ( 1810) = (   0.4807692  -0.3653846  -0.4545455), wk = 0.0000000
        k ( 1811) = (  -0.6153846   0.3846154  -0.4545455), wk = 0.0021517
        k ( 1812) = (  -0.3653846   0.6346154  -0.4545455), wk = 0.0000000
        k ( 1813) = (  -0.2307692   0.6153846   0.4545455), wk = 0.0021517
        k ( 1814) = (   0.0192308   0.8653846   0.4545455), wk = 0.0000000
        k ( 1815) = (  -0.3846154   0.6153846  -0.4545455), wk = 0.0021517
        k ( 1816) = (  -0.1346154   0.8653846  -0.4545455), wk = 0.0000000
        k ( 1817) = (  -0.3076923  -0.3076923   0.0000000), wk = 0.0010758
        k ( 1818) = (  -0.0576923  -0.0576923   0.0000000), wk = 0.0000000
        k ( 1819) = (   0.3076923  -0.6153846   0.0000000), wk = 0.0021517
        k ( 1820) = (   0.5576923  -0.3653846   0.0000000), wk = 0.0000000
        k ( 1821) = (  -0.3076923   0.6153846   0.0000000), wk = 0.0021517
        k ( 1822) = (  -0.0576923   0.8653846   0.0000000), wk = 0.0000000
        k ( 1823) = (  -0.3076923  -0.3076923  -0.0909091), wk = 0.0021517
        k ( 1824) = (  -0.0576923  -0.0576923  -0.0909091), wk = 0.0000000
        k ( 1825) = (   0.3076923  -0.6153846  -0.0909091), wk = 0.0021517
        k ( 1826) = (   0.5576923  -0.3653846  -0.0909091), wk = 0.0000000
        k ( 1827) = (  -0.6153846   0.3076923  -0.0909091), wk = 0.0021517
        k ( 1828) = (  -0.3653846   0.5576923  -0.0909091), wk = 0.0000000
        k ( 1829) = (  -0.3076923   0.6153846   0.0909091), wk = 0.0021517
        k ( 1830) = (  -0.0576923   0.8653846   0.0909091), wk = 0.0000000
        k ( 1831) = (  -0.3076923   0.6153846  -0.0909091), wk = 0.0021517
        k ( 1832) = (  -0.0576923   0.8653846  -0.0909091), wk = 0.0000000
        k ( 1833) = (  -0.3076923  -0.3076923  -0.1818182), wk = 0.0021517
        k ( 1834) = (  -0.0576923  -0.0576923  -0.1818182), wk = 0.0000000
        k ( 1835) = (   0.3076923  -0.6153846  -0.1818182), wk = 0.0021517
        k ( 1836) = (   0.5576923  -0.3653846  -0.1818182), wk = 0.0000000
        k ( 1837) = (  -0.6153846   0.3076923  -0.1818182), wk = 0.0021517
        k ( 1838) = (  -0.3653846   0.5576923  -0.1818182), wk = 0.0000000
        k ( 1839) = (  -0.3076923   0.6153846   0.1818182), wk = 0.0021517
        k ( 1840) = (  -0.0576923   0.8653846   0.1818182), wk = 0.0000000
        k ( 1841) = (  -0.3076923   0.6153846  -0.1818182), wk = 0.0021517
        k ( 1842) = (  -0.0576923   0.8653846  -0.1818182), wk = 0.0000000
        k ( 1843) = (  -0.3076923  -0.3076923  -0.2727273), wk = 0.0021517
        k ( 1844) = (  -0.0576923  -0.0576923  -0.2727273), wk = 0.0000000
        k ( 1845) = (   0.3076923  -0.6153846  -0.2727273), wk = 0.0021517
        k ( 1846) = (   0.5576923  -0.3653846  -0.2727273), wk = 0.0000000
        k ( 1847) = (  -0.6153846   0.3076923  -0.2727273), wk = 0.0021517
        k ( 1848) = (  -0.3653846   0.5576923  -0.2727273), wk = 0.0000000
        k ( 1849) = (  -0.3076923   0.6153846   0.2727273), wk = 0.0021517
        k ( 1850) = (  -0.0576923   0.8653846   0.2727273), wk = 0.0000000
        k ( 1851) = (  -0.3076923   0.6153846  -0.2727273), wk = 0.0021517
        k ( 1852) = (  -0.0576923   0.8653846  -0.2727273), wk = 0.0000000
        k ( 1853) = (  -0.3076923  -0.3076923  -0.3636364), wk = 0.0021517
        k ( 1854) = (  -0.0576923  -0.0576923  -0.3636364), wk = 0.0000000
        k ( 1855) = (   0.3076923  -0.6153846  -0.3636364), wk = 0.0021517
        k ( 1856) = (   0.5576923  -0.3653846  -0.3636364), wk = 0.0000000
        k ( 1857) = (  -0.6153846   0.3076923  -0.3636364), wk = 0.0021517
        k ( 1858) = (  -0.3653846   0.5576923  -0.3636364), wk = 0.0000000
        k ( 1859) = (  -0.3076923   0.6153846   0.3636364), wk = 0.0021517
        k ( 1860) = (  -0.0576923   0.8653846   0.3636364), wk = 0.0000000
        k ( 1861) = (  -0.3076923   0.6153846  -0.3636364), wk = 0.0021517
        k ( 1862) = (  -0.0576923   0.8653846  -0.3636364), wk = 0.0000000
        k ( 1863) = (  -0.3076923  -0.3076923  -0.4545455), wk = 0.0021517
        k ( 1864) = (  -0.0576923  -0.0576923  -0.4545455), wk = 0.0000000
        k ( 1865) = (   0.3076923  -0.6153846  -0.4545455), wk = 0.0021517
        k ( 1866) = (   0.5576923  -0.3653846  -0.4545455), wk = 0.0000000
        k ( 1867) = (  -0.6153846   0.3076923  -0.4545455), wk = 0.0021517
        k ( 1868) = (  -0.3653846   0.5576923  -0.4545455), wk = 0.0000000
        k ( 1869) = (  -0.3076923   0.6153846   0.4545455), wk = 0.0021517
        k ( 1870) = (  -0.0576923   0.8653846   0.4545455), wk = 0.0000000
        k ( 1871) = (  -0.3076923   0.6153846  -0.4545455), wk = 0.0021517
        k ( 1872) = (  -0.0576923   0.8653846  -0.4545455), wk = 0.0000000

     Atomic wfc used for the projector on the Hubbard manifold are orthogonalized

     Total time spent up to now is:
     HP           :      1h 9m CPU      1h29m WALL

      =--------------------------------------------=
                 SOLVE THE LINEAR SYSTEM
      =--------------------------------------------=

      atom #  1   q point #   4   iter #   1
      chi:   1  -0.3384844868
      Average number of iter. to solve lin. system:   38.6
      Total CPU time :  5617.2 s

      atom #  1   q point #   4   iter #   2
      chi:   1   0.0621406935   residue:    0.4006251803
      Average number of iter. to solve lin. system:   14.4
      Total CPU time :  5737.8 s

      atom #  1   q point #   4   iter #   3
      chi:   1  -0.1189527579   residue:    0.1810934513
      Average number of iter. to solve lin. system:   12.9
      Total CPU time :  5850.9 s

      atom #  1   q point #   4   iter #   4
      chi:   1  -0.1346854401   residue:    0.0157326823
      Average number of iter. to solve lin. system:   14.2
      Total CPU time :  5970.7 s

      atom #  1   q point #   4   iter #   5
      chi:   1  -0.1348345922   residue:    0.0001491520
      Average number of iter. to solve lin. system:   14.7
      Total CPU time :  6093.5 s

      atom #  1   q point #   4   iter #   6
      chi:   1  -0.1344331424   residue:    0.0004014498
      Average number of iter. to solve lin. system:   15.4
      Total CPU time :  6221.7 s

      atom #  1   q point #   4   iter #   7
      chi:   1  -0.1341356626   residue:    0.0002974798
      Average number of iter. to solve lin. system:   16.0
      Total CPU time :  6354.2 s

      atom #  1   q point #   4   iter #   8
      chi:   1  -0.1341911295   residue:    0.0000554669
      Average number of iter. to solve lin. system:   14.9
      Total CPU time :  6476.2 s

      atom #  1   q point #   4   iter #   9
      chi:   1  -0.1341879914   residue:    0.0000031380
      Average number of iter. to solve lin. system:   14.6
      Total CPU time :  6595.1 s

      atom #  1   q point #   4   iter #  10
      chi:   1  -0.1341983218   residue:    0.0000103304
      Average number of iter. to solve lin. system:   16.1
      Total CPU time :  6727.6 s

      atom #  1   q point #   4   iter #  11
      chi:   1  -0.1341955448   residue:    0.0000027770
      Average number of iter. to solve lin. system:   14.6
      Total CPU time :  6850.1 s

      atom #  1   q point #   4   iter #  12
      chi:   1  -0.1341967976   residue:    0.0000012528
      Average number of iter. to solve lin. system:   16.0
      Total CPU time :  6980.9 s

      atom #  1   q point #   4   iter #  13
      chi:   1  -0.1341966916   residue:    0.0000001060
      Average number of iter. to solve lin. system:   15.1
      Total CPU time :  7109.3 s

      atom #  1   q point #   4   iter #  14
      chi:   1  -0.1341968925   residue:    0.0000002008
      Average number of iter. to solve lin. system:   15.8
      Total CPU time :  7237.9 s

      atom #  1   q point #   4   iter #  15
      chi:   1  -0.1341970329   residue:    0.0000001404
      Average number of iter. to solve lin. system:   15.6
      Total CPU time :  7364.0 s

      atom #  1   q point #   4   iter #  16
      chi:   1  -0.1341970271   residue:    0.0000000058
      Average number of iter. to solve lin. system:   14.8
      Total CPU time :  7485.8 s
      
      =--------------------------------------------=
             CONVERGENCE HAS BEEN REACHED
      =--------------------------------------------=

     Computing the sum over q of the response occupation matrices...

     q #   1 =  0.000000000   0.000000000   0.000000000
 
     Number of q in the star =    1
     List of q in the star:
          1   0.000000000   0.000000000   0.000000000

     q #   2 =  0.000000000   0.291311978   0.000000000
 
     Number of q in the star =    6
     List of q in the star:
          1   0.000000000   0.291311978   0.000000000
          2   0.000000000  -0.291311978   0.000000000
          3  -0.252283573   0.145655989   0.000000000
          4   0.252283573   0.145655989   0.000000000
          5  -0.252283573  -0.145655989   0.000000000
          6   0.252283573  -0.145655989   0.000000000

     q #   3 =  0.000000000  -0.582623955   0.000000000
 
     Number of q in the star =    3
     List of q in the star:
          1   0.000000000  -0.582623955   0.000000000
          2   0.504567146  -0.291311978   0.000000000
          3  -0.504567146  -0.291311978   0.000000000

     q #   4 =  0.252283573   0.436967966   0.000000000
 
     Number of q in the star =    6
     List of q in the star:
          1   0.252283573   0.436967966   0.000000000
          2  -0.252283573  -0.436967966   0.000000000
          3   0.252283573  -0.436967966   0.000000000
          4  -0.504567146  -0.000000000   0.000000000
          5  -0.252283573   0.436967966   0.000000000
          6   0.504567146   0.000000000   0.000000000

     Post-processing calculation of Hubbard parameters ...

 
     PRINTING TIMING FROM PWSCF ROUTINES: 
 
     init_run     :     17.17s CPU     19.07s WALL (       3 calls)
     electrons    :    881.91s CPU    905.14s WALL (       3 calls)

     Called by init_run:
     wfcinit      :     16.94s CPU     18.78s WALL (       3 calls)
     wfcinit:atom :      0.30s CPU      0.34s WALL (    4882 calls)
     wfcinit:wfcr :     45.61s CPU     46.54s WALL (    4882 calls)
     potinit      :      0.01s CPU      0.06s WALL (       3 calls)
     hinit0       :      0.08s CPU      0.08s WALL (       3 calls)

     Called by electrons:
     c_bands      :    881.74s CPU    904.98s WALL (       3 calls)
     v_of_rho     :      0.01s CPU      0.01s WALL (       4 calls)
     v_h          :      0.00s CPU      0.00s WALL (       4 calls)
     v_xc         :      0.01s CPU      0.01s WALL (       4 calls)

     Called by c_bands:
     init_us_2    :      5.16s CPU      5.71s WALL (   50360 calls)
     init_us_2:cp :      5.09s CPU      5.65s WALL (   50360 calls)
     cegterg      :    705.30s CPU    718.88s WALL (    5023 calls)

     Called by sum_band:

     Called by *egterg:
     cdiaghg      :    347.17s CPU    353.73s WALL (   93021 calls)
     cegterg:over :     50.76s CPU     51.74s WALL (   88139 calls)
     cegterg:upda :     27.58s CPU     28.21s WALL (   88139 calls)
     cegterg:last :     10.72s CPU     11.32s WALL (   14809 calls)
     cdiaghg:chol :     17.56s CPU     17.81s WALL (   93021 calls)
     cdiaghg:inve :     14.59s CPU     14.75s WALL (   93021 calls)
     cdiaghg:para :     28.68s CPU     30.12s WALL (  186042 calls)
     h_psi        :   4021.55s CPU   4116.07s WALL ( 1318764 calls)
     g_psi        :      1.23s CPU      1.26s WALL (   88139 calls)

     Called by h_psi:
     h_psi:calbec :    193.44s CPU    198.31s WALL ( 1318764 calls)
     vloc_psi     :   3618.13s CPU   3702.55s WALL ( 1318764 calls)
     add_vuspsi   :    139.24s CPU    142.96s WALL ( 1318764 calls)
     vhpsi        :     59.69s CPU     61.25s WALL ( 1318764 calls)

     General routines
     calbec       :    423.37s CPU    435.42s WALL ( 3863326 calls)
     fft          :      0.15s CPU      0.88s WALL (     718 calls)
     ffts         :      0.54s CPU      0.55s WALL (    4931 calls)
     fftw         :   4186.40s CPU   4280.91s WALL (40797780 calls)
     davcio       :     45.75s CPU    252.23s WALL ( 1615770 calls)
 
     Parallel routines

     Hubbard U routines
     vhpsi        :     59.69s CPU     61.25s WALL ( 1318764 calls)
 
     init_vloc    :      0.04s CPU      0.04s WALL (       4 calls)
     init_us_1    :      0.02s CPU      0.02s WALL (       4 calls)
     add_vuspsi   :    139.24s CPU    142.96s WALL ( 1318764 calls)
 
     PRINTING TIMING FROM HP ROUTINES: 
 
     hp_setup_q   :      0.02s CPU      0.02s WALL (       4 calls)
     hp_init_q    :      9.04s CPU     11.64s WALL (       4 calls)
     hp_solve_lin :   5201.90s CPU   5512.81s WALL (       4 calls)
     hp_dvpsi_per :     17.89s CPU     19.46s WALL (    2637 calls)
     hp_dnsq      :    151.83s CPU    175.03s WALL (      58 calls)
     hp_symdnsq   :      0.00s CPU      0.00s WALL (      58 calls)
     hp_dnstot_su :      0.00s CPU      0.01s WALL (       1 calls)
     hp_rotate_dn :      0.00s CPU      0.00s WALL (      24 calls)
     hp_calc_chi  :      0.00s CPU      0.00s WALL (       1 calls)
     hp_postproc  :      0.00s CPU      0.20s WALL (       1 calls)
     ef_shift     :      0.00s CPU      0.00s WALL (      12 calls)
     hp_run_nscf  :    968.65s CPU   1939.31s WALL (       3 calls)
     hp_postproc  :      0.00s CPU      0.20s WALL (       1 calls)
     hp_psymdvscf :      0.78s CPU      0.87s WALL (      58 calls)
 
     PRINTING TIMING FROM LR MODULE: 
 
     sth_kernel   :   5028.08s CPU   5310.85s WALL (      58 calls)
     apply_dpot_b :    211.77s CPU    218.71s WALL (   37763 calls)
     ortho        :     15.51s CPU     15.83s WALL (   40400 calls)
     cgsolve      :   4156.68s CPU   4343.75s WALL (   40400 calls)
     ch_psi       :   4086.94s CPU   4271.39s WALL ( 1220720 calls)
     incdrhoscf   :    520.92s CPU    528.42s WALL (   40400 calls)
     localdos     :      1.41s CPU      1.43s WALL (       1 calls)
     dv_of_drho   :      0.14s CPU      0.15s WALL (      58 calls)
     mix_pot      :      1.67s CPU      3.68s WALL (      58 calls)
     setup_dgc    :      0.02s CPU      0.02s WALL (       4 calls)
     setup_dmuxc  :      0.00s CPU      0.00s WALL (       4 calls)
     setup_nbnd_o :      0.00s CPU      0.00s WALL (       4 calls)
     lr_orthoUwfc :      9.04s CPU      9.78s WALL (       4 calls)
     cft_wave     :    204.53s CPU    211.09s WALL ( 1901500 calls)
 
     HP           :      1h43m CPU      2h 4m WALL

 
   This run was terminated on:   6:12:31   6Sep2022            

=------------------------------------------------------------------------------=
   JOB DONE.
=------------------------------------------------------------------------------=
