
     Program HP v.7.1 starts on  5Sep2022 at 19: 2:27 

     This program is part of the open-source Quantum ESPRESSO suite
     for quantum simulation of materials; please cite
         "P. Giannozzi et al., J. Phys.:Condens. Matter 21 395502 (2009);
         "P. Giannozzi et al., J. Phys.:Condens. Matter 29 465901 (2017);
         "P. Giannozzi et al., J. Chem. Phys. 152 154105 (2020);
          URL http://www.quantum-espresso.org", 
     in publications or presentations arising from this work. More details at
     http://www.quantum-espresso.org/quote

     Parallel version (MPI), running on    24 processors

     MPI processes distributed on     1 nodes
     R & G space division:  proc/nbgrp/npool/nimage =      24
     490999 MiB available memory on the printing compute node when the environment starts
 

     =--------------------------------------------------------------------------=

       Calculation of Hubbard parameters from DFPT; please cite this program as

       I. Timrov, N. Marzari, and M. Cococcioni, Phys. Rev. B 98,  085127 (2018)

       I. Timrov, N. Marzari, and M. Cococcioni, Phys. Rev. B 103, 045141 (2021)

     =--------------------------------------------------------------------------=

     Reading xml data from directory:

     .//lscratch.bUPtSe2/bUPtSe2.save/

     IMPORTANT: XC functional enforced from input :
     Exchange-correlation= PBE
                           (   1   4   3   4   0   0   0)
     Any further DFT definition will be discarded
     Please, verify this is what you really want

 
     Parallelization info
     --------------------
     sticks:   dense  smooth     PW     G-vecs:    dense   smooth      PW
     Min          62      62     17                 2648     2648     387
     Max          63      63     18                 2655     2655     394
     Sum        1507    1507    421                63657    63657    9393
 
     Using Slab Decomposition
 
     Reading collected, re-writing distributed wavefunctions
 

     bravais-lattice index     =             0
     lattice parameter (alat)  =        7.1073 (a.u.)
     unit-cell volume          =      407.2428 (a.u.)^3
     number of atoms/cell      =             3
     number of atomic types    =             2
     kinetic-energy cut-off    =        110.00 (Ry)
     charge density cut-off    =        440.00 (Ry)
     conv. thresh. for NSCF    =       1.0E-11
     conv. thresh. for chi     =       1.0E-07
     Input Hubbard parameters (in eV):
       U ( 1)                     =   1.00000E-04

     celldm(1) =  7.10726  celldm(2) =  0.00000  celldm(3) =  0.00000
     celldm(4) =  0.00000  celldm(5) =  0.00000  celldm(6) =  0.00000

     crystal axes: (cart. coord. in units of alat)
               a(1) = (  0.9909  0.0000  0.0000 )  
               a(2) = ( -0.4955  0.8582  0.0000 )  
               a(3) = (  0.0000  0.0000  1.3339 )  

     reciprocal axes: (cart. coord. in units 2 pi/alat)
               b(1) = (  1.0091  0.5826  0.0000 )  
               b(2) = (  0.0000  1.1652  0.0000 )  
               b(3) = (  0.0000  0.0000  0.7497 )  

     Atoms inside the unit cell (Cartesian axes):
     site n.  atom      mass           positions (alat units)
        1      Pt    195.0840   tau(  1) = (  0.00000  0.00000  0.00000  )
        2      Se     78.9600   tau(  2) = (  0.49547  0.28606  0.97910  )
        3      Se     78.9600   tau(  3) = ( -0.00000  0.57212  0.35477  )

     Atom which will be perturbed:

        1      Pt    195.0840   tau( 1) = (  0.00000  0.00000  0.00000  )
 
     =====================================================================

                          PERTURBED ATOM #    1

     site n.  atom      mass           positions (alat units)
        1      Pt    195.0840   tau( 1) = (  0.00000  0.00000  0.00000  )
 
     =====================================================================

     The perturbed atom has a type which is unique!


     The grid of q-points ( 3, 3, 1)  (  3 q-points ) :
       N       xq(1)         xq(2)         xq(3)       wq
       1   0.000000000   0.000000000   0.000000000   0.111111111
       2   0.000000000   0.388415970   0.000000000   0.666666667
       3   0.336378097   0.582623955   0.000000000   0.222222222


     =-------------------------------------------------------------=

     Calculation for q #   1 = (   0.0000000   0.0000000   0.0000000 )

     =-------------------------------------------------------------=

                   WRITING LINEAR-RESPONSE SUMMARY:


     Number of symmetries in the small group of q, nsymq = 12
      + the symmetry q -> -q+G 

     Symmetry matrices (and vectors of fractional translations if f/=0):

     isym =  1     identity                                     

     cryst.   s( 1) = (     1          0          0      )
                      (     0          1          0      )
                      (     0          0          1      )

     cart.    s( 1) = (  1.0000000  0.0000000  0.0000000 )
                      (  0.0000000  1.0000000  0.0000000 )
                      (  0.0000000  0.0000000  1.0000000 )


     isym =  2     180 deg rotation - cart. axis [1,0,0]        

     cryst.   s( 2) = (     1          0          0      )
                      (    -1         -1          0      )
                      (     0          0         -1      )

     cart.    s( 2) = (  1.0000000  0.0000000  0.0000000 )
                      (  0.0000000 -1.0000000  0.0000000 )
                      (  0.0000000  0.0000000 -1.0000000 )


     isym =  3     120 deg rotation - cryst. axis [0,0,1]       

     cryst.   s( 3) = (     0          1          0      )
                      (    -1         -1          0      )
                      (     0          0          1      )

     cart.    s( 3) = ( -0.5000000 -0.8660254  0.0000000 )
                      (  0.8660254 -0.5000000  0.0000000 )
                      (  0.0000000  0.0000000  1.0000000 )


     isym =  4     120 deg rotation - cryst. axis [0,0,-1]      

     cryst.   s( 4) = (    -1         -1          0      )
                      (     1          0          0      )
                      (     0          0          1      )

     cart.    s( 4) = ( -0.5000000  0.8660254  0.0000000 )
                      ( -0.8660254 -0.5000000  0.0000000 )
                      (  0.0000000  0.0000000  1.0000000 )


     isym =  5     180 deg rotation - cryst. axis [0,1,0]       

     cryst.   s( 5) = (    -1         -1          0      )
                      (     0          1          0      )
                      (     0          0         -1      )

     cart.    s( 5) = ( -0.5000000 -0.8660254  0.0000000 )
                      ( -0.8660254  0.5000000  0.0000000 )
                      (  0.0000000  0.0000000 -1.0000000 )


     isym =  6     180 deg rotation - cryst. axis [1,1,0]       

     cryst.   s( 6) = (     0          1          0      )
                      (     1          0          0      )
                      (     0          0         -1      )

     cart.    s( 6) = ( -0.5000000  0.8660254  0.0000000 )
                      (  0.8660254  0.5000000  0.0000000 )
                      (  0.0000000  0.0000000 -1.0000000 )


     isym =  7     inversion                                    

     cryst.   s( 7) = (    -1          0          0      )
                      (     0         -1          0      )
                      (     0          0         -1      )

     cart.    s( 7) = ( -1.0000000  0.0000000  0.0000000 )
                      (  0.0000000 -1.0000000  0.0000000 )
                      (  0.0000000  0.0000000 -1.0000000 )


     isym =  8     inv. 180 deg rotation - cart. axis [1,0,0]   

     cryst.   s( 8) = (    -1          0          0      )
                      (     1          1          0      )
                      (     0          0          1      )

     cart.    s( 8) = ( -1.0000000 -0.0000000  0.0000000 )
                      (  0.0000000  1.0000000  0.0000000 )
                      (  0.0000000  0.0000000  1.0000000 )


     isym =  9     inv. 120 deg rotation - cryst. axis [0,0,1]  

     cryst.   s( 9) = (     0         -1          0      )
                      (     1          1          0      )
                      (     0          0         -1      )

     cart.    s( 9) = (  0.5000000  0.8660254  0.0000000 )
                      ( -0.8660254  0.5000000  0.0000000 )
                      (  0.0000000  0.0000000 -1.0000000 )


     isym = 10     inv. 120 deg rotation - cryst. axis [0,0,-1] 

     cryst.   s(10) = (     1          1          0      )
                      (    -1          0          0      )
                      (     0          0         -1      )

     cart.    s(10) = (  0.5000000 -0.8660254  0.0000000 )
                      (  0.8660254  0.5000000  0.0000000 )
                      (  0.0000000  0.0000000 -1.0000000 )


     isym = 11     inv. 180 deg rotation - cryst. axis [0,1,0]  

     cryst.   s(11) = (     1          1          0      )
                      (     0         -1          0      )
                      (     0          0          1      )

     cart.    s(11) = (  0.5000000  0.8660254  0.0000000 )
                      (  0.8660254 -0.5000000  0.0000000 )
                      (  0.0000000  0.0000000  1.0000000 )


     isym = 12     inv. 180 deg rotation - cryst. axis [1,1,0]  

     cryst.   s(12) = (     0         -1          0      )
                      (    -1          0          0      )
                      (     0          0          1      )

     cart.    s(12) = (  0.5000000 -0.8660254  0.0000000 )
                      ( -0.8660254 -0.5000000  0.0000000 )
                      (  0.0000000  0.0000000  1.0000000 )


     This transformation sends q -> -q+G

     isym = 13     identity                                     

     cryst.   s(13) = (     1          0          0      )
                      (     0          1          0      )
                      (     0          0          1      )

     cart.    s(13) = (  1.0000000  0.0000000  0.0000000 )
                      (  0.0000000  1.0000000  0.0000000 )
                      (  0.0000000  0.0000000  1.0000000 )


     G cutoff =  562.9857  (   2650 G-vectors)     FFT grid: ( 48, 48, 64)

     Number of k (and k+q if q/=0) points =   196  Methfessel-Paxton smearing, width (Ry) =  0.0080

                       cart. coord. (in units 2pi/alat)
        k (    1) = (   0.0000000   0.0000000   0.0000000), wk = 0.0010758
        k (    2) = (   0.0000000   0.0000000   0.0681543), wk = 0.0021517
        k (    3) = (   0.0000000   0.0000000   0.1363086), wk = 0.0021517
        k (    4) = (   0.0000000   0.0000000   0.2044629), wk = 0.0021517
        k (    5) = (   0.0000000   0.0000000   0.2726172), wk = 0.0021517
        k (    6) = (   0.0000000   0.0000000   0.3407715), wk = 0.0021517
        k (    7) = (   0.0000000   0.0896345   0.0000000), wk = 0.0064551
        k (    8) = (   0.0000000   0.0896345   0.0681543), wk = 0.0064551
        k (    9) = (   0.0000000   0.0896345   0.1363086), wk = 0.0064551
        k (   10) = (   0.0000000   0.0896345   0.2044629), wk = 0.0064551
        k (   11) = (   0.0000000   0.0896345   0.2726172), wk = 0.0064551
        k (   12) = (   0.0000000   0.0896345   0.3407715), wk = 0.0064551
        k (   13) = (   0.0000000   0.1792689   0.0000000), wk = 0.0064551
        k (   14) = (   0.0000000   0.1792689   0.0681543), wk = 0.0064551
        k (   15) = (   0.0000000   0.1792689   0.1363086), wk = 0.0064551
        k (   16) = (   0.0000000   0.1792689   0.2044629), wk = 0.0064551
        k (   17) = (   0.0000000   0.1792689   0.2726172), wk = 0.0064551
        k (   18) = (   0.0000000   0.1792689   0.3407715), wk = 0.0064551
        k (   19) = (   0.0000000   0.2689034   0.0000000), wk = 0.0064551
        k (   20) = (   0.0000000   0.2689034   0.0681543), wk = 0.0064551
        k (   21) = (   0.0000000   0.2689034   0.1363086), wk = 0.0064551
        k (   22) = (   0.0000000   0.2689034   0.2044629), wk = 0.0064551
        k (   23) = (   0.0000000   0.2689034   0.2726172), wk = 0.0064551
        k (   24) = (   0.0000000   0.2689034   0.3407715), wk = 0.0064551
        k (   25) = (   0.0000000   0.3585378   0.0000000), wk = 0.0064551
        k (   26) = (   0.0000000   0.3585378   0.0681543), wk = 0.0064551
        k (   27) = (   0.0000000   0.3585378   0.1363086), wk = 0.0064551
        k (   28) = (   0.0000000   0.3585378   0.2044629), wk = 0.0064551
        k (   29) = (   0.0000000   0.3585378   0.2726172), wk = 0.0064551
        k (   30) = (   0.0000000   0.3585378   0.3407715), wk = 0.0064551
        k (   31) = (   0.0000000   0.4481723   0.0000000), wk = 0.0064551
        k (   32) = (   0.0000000   0.4481723   0.0681543), wk = 0.0064551
        k (   33) = (   0.0000000   0.4481723   0.1363086), wk = 0.0064551
        k (   34) = (   0.0000000   0.4481723   0.2044629), wk = 0.0064551
        k (   35) = (   0.0000000   0.4481723   0.2726172), wk = 0.0064551
        k (   36) = (   0.0000000   0.4481723   0.3407715), wk = 0.0064551
        k (   37) = (   0.0000000   0.5378067   0.0000000), wk = 0.0064551
        k (   38) = (   0.0000000   0.5378067   0.0681543), wk = 0.0064551
        k (   39) = (   0.0000000   0.5378067   0.1363086), wk = 0.0064551
        k (   40) = (   0.0000000   0.5378067   0.2044629), wk = 0.0064551
        k (   41) = (   0.0000000   0.5378067   0.2726172), wk = 0.0064551
        k (   42) = (   0.0000000   0.5378067   0.3407715), wk = 0.0064551
        k (   43) = (   0.0776257   0.1344517   0.0000000), wk = 0.0064551
        k (   44) = (   0.0776257   0.1344517   0.0681543), wk = 0.0129102
        k (   45) = (   0.0776257   0.1344517   0.1363086), wk = 0.0129102
        k (   46) = (   0.0776257   0.1344517   0.2044629), wk = 0.0129102
        k (   47) = (   0.0776257   0.1344517   0.2726172), wk = 0.0129102
        k (   48) = (   0.0776257   0.1344517   0.3407715), wk = 0.0129102
        k (   49) = (   0.0776257   0.2240861   0.0000000), wk = 0.0129102
        k (   50) = (   0.0776257   0.2240861   0.0681543), wk = 0.0129102
        k (   51) = (   0.0776257   0.2240861   0.1363086), wk = 0.0129102
        k (   52) = (   0.0776257   0.2240861   0.2044629), wk = 0.0129102
        k (   53) = (   0.0776257   0.2240861   0.2726172), wk = 0.0129102
        k (   54) = (   0.0776257   0.2240861   0.3407715), wk = 0.0129102
        k (   55) = (   0.0776257   0.3137206   0.0000000), wk = 0.0129102
        k (   56) = (   0.0776257   0.3137206   0.0681543), wk = 0.0129102
        k (   57) = (   0.0776257   0.3137206   0.1363086), wk = 0.0129102
        k (   58) = (   0.0776257   0.3137206   0.2044629), wk = 0.0129102
        k (   59) = (   0.0776257   0.3137206   0.2726172), wk = 0.0129102
        k (   60) = (   0.0776257   0.3137206   0.3407715), wk = 0.0129102
        k (   61) = (   0.0776257   0.4033550   0.0000000), wk = 0.0129102
        k (   62) = (   0.0776257   0.4033550   0.0681543), wk = 0.0129102
        k (   63) = (   0.0776257   0.4033550   0.1363086), wk = 0.0129102
        k (   64) = (   0.0776257   0.4033550   0.2044629), wk = 0.0129102
        k (   65) = (   0.0776257   0.4033550   0.2726172), wk = 0.0129102
        k (   66) = (   0.0776257   0.4033550   0.3407715), wk = 0.0129102
        k (   67) = (   0.0776257   0.4929895   0.0000000), wk = 0.0129102
        k (   68) = (   0.0776257   0.4929895   0.0681543), wk = 0.0129102
        k (   69) = (   0.0776257   0.4929895   0.1363086), wk = 0.0129102
        k (   70) = (   0.0776257   0.4929895   0.2044629), wk = 0.0129102
        k (   71) = (   0.0776257   0.4929895   0.2726172), wk = 0.0129102
        k (   72) = (   0.0776257   0.4929895   0.3407715), wk = 0.0129102
        k (   73) = (   0.0776257   0.5826240   0.0000000), wk = 0.0064551
        k (   74) = (   0.0776257   0.5826240   0.0681543), wk = 0.0129102
        k (   75) = (   0.0776257   0.5826240   0.1363086), wk = 0.0129102
        k (   76) = (   0.0776257   0.5826240   0.2044629), wk = 0.0129102
        k (   77) = (   0.0776257   0.5826240   0.2726172), wk = 0.0129102
        k (   78) = (   0.0776257   0.5826240   0.3407715), wk = 0.0129102
        k (   79) = (   0.1552514   0.2689034   0.0000000), wk = 0.0064551
        k (   80) = (   0.1552514   0.2689034   0.0681543), wk = 0.0129102
        k (   81) = (   0.1552514   0.2689034   0.1363086), wk = 0.0129102
        k (   82) = (   0.1552514   0.2689034   0.2044629), wk = 0.0129102
        k (   83) = (   0.1552514   0.2689034   0.2726172), wk = 0.0129102
        k (   84) = (   0.1552514   0.2689034   0.3407715), wk = 0.0129102
        k (   85) = (   0.1552514   0.3585378   0.0000000), wk = 0.0129102
        k (   86) = (   0.1552514   0.3585378   0.0681543), wk = 0.0129102
        k (   87) = (   0.1552514   0.3585378   0.1363086), wk = 0.0129102
        k (   88) = (   0.1552514   0.3585378   0.2044629), wk = 0.0129102
        k (   89) = (   0.1552514   0.3585378   0.2726172), wk = 0.0129102
        k (   90) = (   0.1552514   0.3585378   0.3407715), wk = 0.0129102
        k (   91) = (   0.1552514   0.4481723   0.0000000), wk = 0.0129102
        k (   92) = (   0.1552514   0.4481723   0.0681543), wk = 0.0129102
        k (   93) = (   0.1552514   0.4481723   0.1363086), wk = 0.0129102
        k (   94) = (   0.1552514   0.4481723   0.2044629), wk = 0.0129102
        k (   95) = (   0.1552514   0.4481723   0.2726172), wk = 0.0129102
        k (   96) = (   0.1552514   0.4481723   0.3407715), wk = 0.0129102
        k (   97) = (   0.1552514   0.5378067   0.0000000), wk = 0.0129102
        k (   98) = (   0.1552514   0.5378067   0.0681543), wk = 0.0129102
        k (   99) = (   0.1552514   0.5378067   0.1363086), wk = 0.0129102
        k (  100) = (   0.1552514   0.5378067   0.2044629), wk = 0.0129102
        k (  101) = (   0.1552514   0.5378067   0.2726172), wk = 0.0129102
        k (  102) = (   0.1552514   0.5378067   0.3407715), wk = 0.0129102
        k (  103) = (   0.2328771   0.4033550   0.0000000), wk = 0.0064551
        k (  104) = (   0.2328771   0.4033550   0.0681543), wk = 0.0129102
        k (  105) = (   0.2328771   0.4033550   0.1363086), wk = 0.0129102
        k (  106) = (   0.2328771   0.4033550   0.2044629), wk = 0.0129102
        k (  107) = (   0.2328771   0.4033550   0.2726172), wk = 0.0129102
        k (  108) = (   0.2328771   0.4033550   0.3407715), wk = 0.0129102
        k (  109) = (   0.2328771   0.4929895   0.0000000), wk = 0.0129102
        k (  110) = (   0.2328771   0.4929895   0.0681543), wk = 0.0129102
        k (  111) = (   0.2328771   0.4929895   0.1363086), wk = 0.0129102
        k (  112) = (   0.2328771   0.4929895   0.2044629), wk = 0.0129102
        k (  113) = (   0.2328771   0.4929895   0.2726172), wk = 0.0129102
        k (  114) = (   0.2328771   0.4929895   0.3407715), wk = 0.0129102
        k (  115) = (   0.2328771   0.5826240   0.0000000), wk = 0.0064551
        k (  116) = (   0.2328771   0.5826240   0.0681543), wk = 0.0129102
        k (  117) = (   0.2328771   0.5826240   0.1363086), wk = 0.0129102
        k (  118) = (   0.2328771   0.5826240   0.2044629), wk = 0.0129102
        k (  119) = (   0.2328771   0.5826240   0.2726172), wk = 0.0129102
        k (  120) = (   0.2328771   0.5826240   0.3407715), wk = 0.0129102
        k (  121) = (   0.3105029   0.5378067   0.0000000), wk = 0.0064551
        k (  122) = (   0.3105029   0.5378067   0.0681543), wk = 0.0129102
        k (  123) = (   0.3105029   0.5378067   0.1363086), wk = 0.0129102
        k (  124) = (   0.3105029   0.5378067   0.2044629), wk = 0.0129102
        k (  125) = (   0.3105029   0.5378067   0.2726172), wk = 0.0129102
        k (  126) = (   0.3105029   0.5378067   0.3407715), wk = 0.0129102
        k (  127) = (   0.0000000   0.0896345  -0.0681543), wk = 0.0064551
        k (  128) = (   0.0000000   0.0896345  -0.1363086), wk = 0.0064551
        k (  129) = (   0.0000000   0.0896345  -0.2044629), wk = 0.0064551
        k (  130) = (   0.0000000   0.0896345  -0.2726172), wk = 0.0064551
        k (  131) = (   0.0000000   0.0896345  -0.3407715), wk = 0.0064551
        k (  132) = (   0.0000000   0.1792689  -0.0681543), wk = 0.0064551
        k (  133) = (   0.0000000   0.1792689  -0.1363086), wk = 0.0064551
        k (  134) = (   0.0000000   0.1792689  -0.2044629), wk = 0.0064551
        k (  135) = (   0.0000000   0.1792689  -0.2726172), wk = 0.0064551
        k (  136) = (   0.0000000   0.1792689  -0.3407715), wk = 0.0064551
        k (  137) = (   0.0000000   0.2689034  -0.0681543), wk = 0.0064551
        k (  138) = (   0.0000000   0.2689034  -0.1363086), wk = 0.0064551
        k (  139) = (   0.0000000   0.2689034  -0.2044629), wk = 0.0064551
        k (  140) = (   0.0000000   0.2689034  -0.2726172), wk = 0.0064551
        k (  141) = (   0.0000000   0.2689034  -0.3407715), wk = 0.0064551
        k (  142) = (   0.0000000   0.3585378  -0.0681543), wk = 0.0064551
        k (  143) = (   0.0000000   0.3585378  -0.1363086), wk = 0.0064551
        k (  144) = (   0.0000000   0.3585378  -0.2044629), wk = 0.0064551
        k (  145) = (   0.0000000   0.3585378  -0.2726172), wk = 0.0064551
        k (  146) = (   0.0000000   0.3585378  -0.3407715), wk = 0.0064551
        k (  147) = (   0.0000000   0.4481723  -0.0681543), wk = 0.0064551
        k (  148) = (   0.0000000   0.4481723  -0.1363086), wk = 0.0064551
        k (  149) = (   0.0000000   0.4481723  -0.2044629), wk = 0.0064551
        k (  150) = (   0.0000000   0.4481723  -0.2726172), wk = 0.0064551
        k (  151) = (   0.0000000   0.4481723  -0.3407715), wk = 0.0064551
        k (  152) = (   0.0000000   0.5378067  -0.0681543), wk = 0.0064551
        k (  153) = (   0.0000000   0.5378067  -0.1363086), wk = 0.0064551
        k (  154) = (   0.0000000   0.5378067  -0.2044629), wk = 0.0064551
        k (  155) = (   0.0000000   0.5378067  -0.2726172), wk = 0.0064551
        k (  156) = (   0.0000000   0.5378067  -0.3407715), wk = 0.0064551
        k (  157) = (  -0.0776257   0.2240861  -0.0681543), wk = 0.0129102
        k (  158) = (  -0.0776257   0.2240861  -0.1363086), wk = 0.0129102
        k (  159) = (  -0.0776257   0.2240861  -0.2044629), wk = 0.0129102
        k (  160) = (  -0.0776257   0.2240861  -0.2726172), wk = 0.0129102
        k (  161) = (  -0.0776257   0.2240861  -0.3407715), wk = 0.0129102
        k (  162) = (  -0.0776257   0.3137206  -0.0681543), wk = 0.0129102
        k (  163) = (  -0.0776257   0.3137206  -0.1363086), wk = 0.0129102
        k (  164) = (  -0.0776257   0.3137206  -0.2044629), wk = 0.0129102
        k (  165) = (  -0.0776257   0.3137206  -0.2726172), wk = 0.0129102
        k (  166) = (  -0.0776257   0.3137206  -0.3407715), wk = 0.0129102
        k (  167) = (  -0.0776257   0.4033550  -0.0681543), wk = 0.0129102
        k (  168) = (  -0.0776257   0.4033550  -0.1363086), wk = 0.0129102
        k (  169) = (  -0.0776257   0.4033550  -0.2044629), wk = 0.0129102
        k (  170) = (  -0.0776257   0.4033550  -0.2726172), wk = 0.0129102
        k (  171) = (  -0.0776257   0.4033550  -0.3407715), wk = 0.0129102
        k (  172) = (  -0.0776257   0.4929895  -0.0681543), wk = 0.0129102
        k (  173) = (  -0.0776257   0.4929895  -0.1363086), wk = 0.0129102
        k (  174) = (  -0.0776257   0.4929895  -0.2044629), wk = 0.0129102
        k (  175) = (  -0.0776257   0.4929895  -0.2726172), wk = 0.0129102
        k (  176) = (  -0.0776257   0.4929895  -0.3407715), wk = 0.0129102
        k (  177) = (  -0.1552514   0.3585378  -0.0681543), wk = 0.0129102
        k (  178) = (  -0.1552514   0.3585378  -0.1363086), wk = 0.0129102
        k (  179) = (  -0.1552514   0.3585378  -0.2044629), wk = 0.0129102
        k (  180) = (  -0.1552514   0.3585378  -0.2726172), wk = 0.0129102
        k (  181) = (  -0.1552514   0.3585378  -0.3407715), wk = 0.0129102
        k (  182) = (  -0.1552514   0.4481723  -0.0681543), wk = 0.0129102
        k (  183) = (  -0.1552514   0.4481723  -0.1363086), wk = 0.0129102
        k (  184) = (  -0.1552514   0.4481723  -0.2044629), wk = 0.0129102
        k (  185) = (  -0.1552514   0.4481723  -0.2726172), wk = 0.0129102
        k (  186) = (  -0.1552514   0.4481723  -0.3407715), wk = 0.0129102
        k (  187) = (  -0.1552514   0.5378067  -0.0681543), wk = 0.0129102
        k (  188) = (  -0.1552514   0.5378067  -0.1363086), wk = 0.0129102
        k (  189) = (  -0.1552514   0.5378067  -0.2044629), wk = 0.0129102
        k (  190) = (  -0.1552514   0.5378067  -0.2726172), wk = 0.0129102
        k (  191) = (  -0.1552514   0.5378067  -0.3407715), wk = 0.0129102
        k (  192) = (  -0.2328771   0.4929895  -0.0681543), wk = 0.0129102
        k (  193) = (  -0.2328771   0.4929895  -0.1363086), wk = 0.0129102
        k (  194) = (  -0.2328771   0.4929895  -0.2044629), wk = 0.0129102
        k (  195) = (  -0.2328771   0.4929895  -0.2726172), wk = 0.0129102
        k (  196) = (  -0.2328771   0.4929895  -0.3407715), wk = 0.0129102

                       cryst. coord.
        k (    1) = (   0.0000000   0.0000000   0.0000000), wk = 0.0010758
        k (    2) = (   0.0000000   0.0000000   0.0909091), wk = 0.0021517
        k (    3) = (   0.0000000   0.0000000   0.1818182), wk = 0.0021517
        k (    4) = (   0.0000000   0.0000000   0.2727273), wk = 0.0021517
        k (    5) = (   0.0000000   0.0000000   0.3636364), wk = 0.0021517
        k (    6) = (   0.0000000   0.0000000   0.4545455), wk = 0.0021517
        k (    7) = (   0.0000000   0.0769231   0.0000000), wk = 0.0064551
        k (    8) = (   0.0000000   0.0769231   0.0909091), wk = 0.0064551
        k (    9) = (   0.0000000   0.0769231   0.1818182), wk = 0.0064551
        k (   10) = (   0.0000000   0.0769231   0.2727273), wk = 0.0064551
        k (   11) = (   0.0000000   0.0769231   0.3636364), wk = 0.0064551
        k (   12) = (   0.0000000   0.0769231   0.4545455), wk = 0.0064551
        k (   13) = (   0.0000000   0.1538462   0.0000000), wk = 0.0064551
        k (   14) = (   0.0000000   0.1538462   0.0909091), wk = 0.0064551
        k (   15) = (   0.0000000   0.1538462   0.1818182), wk = 0.0064551
        k (   16) = (   0.0000000   0.1538462   0.2727273), wk = 0.0064551
        k (   17) = (   0.0000000   0.1538462   0.3636364), wk = 0.0064551
        k (   18) = (   0.0000000   0.1538462   0.4545455), wk = 0.0064551
        k (   19) = (   0.0000000   0.2307692   0.0000000), wk = 0.0064551
        k (   20) = (   0.0000000   0.2307692   0.0909091), wk = 0.0064551
        k (   21) = (   0.0000000   0.2307692   0.1818182), wk = 0.0064551
        k (   22) = (   0.0000000   0.2307692   0.2727273), wk = 0.0064551
        k (   23) = (   0.0000000   0.2307692   0.3636364), wk = 0.0064551
        k (   24) = (   0.0000000   0.2307692   0.4545455), wk = 0.0064551
        k (   25) = (   0.0000000   0.3076923   0.0000000), wk = 0.0064551
        k (   26) = (   0.0000000   0.3076923   0.0909091), wk = 0.0064551
        k (   27) = (   0.0000000   0.3076923   0.1818182), wk = 0.0064551
        k (   28) = (   0.0000000   0.3076923   0.2727273), wk = 0.0064551
        k (   29) = (   0.0000000   0.3076923   0.3636364), wk = 0.0064551
        k (   30) = (   0.0000000   0.3076923   0.4545455), wk = 0.0064551
        k (   31) = (   0.0000000   0.3846154   0.0000000), wk = 0.0064551
        k (   32) = (   0.0000000   0.3846154   0.0909091), wk = 0.0064551
        k (   33) = (   0.0000000   0.3846154   0.1818182), wk = 0.0064551
        k (   34) = (   0.0000000   0.3846154   0.2727273), wk = 0.0064551
        k (   35) = (   0.0000000   0.3846154   0.3636364), wk = 0.0064551
        k (   36) = (   0.0000000   0.3846154   0.4545455), wk = 0.0064551
        k (   37) = (   0.0000000   0.4615385   0.0000000), wk = 0.0064551
        k (   38) = (   0.0000000   0.4615385   0.0909091), wk = 0.0064551
        k (   39) = (   0.0000000   0.4615385   0.1818182), wk = 0.0064551
        k (   40) = (   0.0000000   0.4615385   0.2727273), wk = 0.0064551
        k (   41) = (   0.0000000   0.4615385   0.3636364), wk = 0.0064551
        k (   42) = (   0.0000000   0.4615385   0.4545455), wk = 0.0064551
        k (   43) = (   0.0769231   0.0769231   0.0000000), wk = 0.0064551
        k (   44) = (   0.0769231   0.0769231   0.0909091), wk = 0.0129102
        k (   45) = (   0.0769231   0.0769231   0.1818182), wk = 0.0129102
        k (   46) = (   0.0769231   0.0769231   0.2727273), wk = 0.0129102
        k (   47) = (   0.0769231   0.0769231   0.3636364), wk = 0.0129102
        k (   48) = (   0.0769231   0.0769231   0.4545455), wk = 0.0129102
        k (   49) = (   0.0769231   0.1538462   0.0000000), wk = 0.0129102
        k (   50) = (   0.0769231   0.1538462   0.0909091), wk = 0.0129102
        k (   51) = (   0.0769231   0.1538462   0.1818182), wk = 0.0129102
        k (   52) = (   0.0769231   0.1538462   0.2727273), wk = 0.0129102
        k (   53) = (   0.0769231   0.1538462   0.3636364), wk = 0.0129102
        k (   54) = (   0.0769231   0.1538462   0.4545455), wk = 0.0129102
        k (   55) = (   0.0769231   0.2307692   0.0000000), wk = 0.0129102
        k (   56) = (   0.0769231   0.2307692   0.0909091), wk = 0.0129102
        k (   57) = (   0.0769231   0.2307692   0.1818182), wk = 0.0129102
        k (   58) = (   0.0769231   0.2307692   0.2727273), wk = 0.0129102
        k (   59) = (   0.0769231   0.2307692   0.3636364), wk = 0.0129102
        k (   60) = (   0.0769231   0.2307692   0.4545455), wk = 0.0129102
        k (   61) = (   0.0769231   0.3076923   0.0000000), wk = 0.0129102
        k (   62) = (   0.0769231   0.3076923   0.0909091), wk = 0.0129102
        k (   63) = (   0.0769231   0.3076923   0.1818182), wk = 0.0129102
        k (   64) = (   0.0769231   0.3076923   0.2727273), wk = 0.0129102
        k (   65) = (   0.0769231   0.3076923   0.3636364), wk = 0.0129102
        k (   66) = (   0.0769231   0.3076923   0.4545455), wk = 0.0129102
        k (   67) = (   0.0769231   0.3846154   0.0000000), wk = 0.0129102
        k (   68) = (   0.0769231   0.3846154   0.0909091), wk = 0.0129102
        k (   69) = (   0.0769231   0.3846154   0.1818182), wk = 0.0129102
        k (   70) = (   0.0769231   0.3846154   0.2727273), wk = 0.0129102
        k (   71) = (   0.0769231   0.3846154   0.3636364), wk = 0.0129102
        k (   72) = (   0.0769231   0.3846154   0.4545455), wk = 0.0129102
        k (   73) = (   0.0769231   0.4615385   0.0000000), wk = 0.0064551
        k (   74) = (   0.0769231   0.4615385   0.0909091), wk = 0.0129102
        k (   75) = (   0.0769231   0.4615385   0.1818182), wk = 0.0129102
        k (   76) = (   0.0769231   0.4615385   0.2727273), wk = 0.0129102
        k (   77) = (   0.0769231   0.4615385   0.3636364), wk = 0.0129102
        k (   78) = (   0.0769231   0.4615385   0.4545455), wk = 0.0129102
        k (   79) = (   0.1538462   0.1538462   0.0000000), wk = 0.0064551
        k (   80) = (   0.1538462   0.1538462   0.0909091), wk = 0.0129102
        k (   81) = (   0.1538462   0.1538462   0.1818182), wk = 0.0129102
        k (   82) = (   0.1538462   0.1538462   0.2727273), wk = 0.0129102
        k (   83) = (   0.1538462   0.1538462   0.3636364), wk = 0.0129102
        k (   84) = (   0.1538462   0.1538462   0.4545455), wk = 0.0129102
        k (   85) = (   0.1538462   0.2307692   0.0000000), wk = 0.0129102
        k (   86) = (   0.1538462   0.2307692   0.0909091), wk = 0.0129102
        k (   87) = (   0.1538462   0.2307692   0.1818182), wk = 0.0129102
        k (   88) = (   0.1538462   0.2307692   0.2727273), wk = 0.0129102
        k (   89) = (   0.1538462   0.2307692   0.3636364), wk = 0.0129102
        k (   90) = (   0.1538462   0.2307692   0.4545455), wk = 0.0129102
        k (   91) = (   0.1538462   0.3076923   0.0000000), wk = 0.0129102
        k (   92) = (   0.1538462   0.3076923   0.0909091), wk = 0.0129102
        k (   93) = (   0.1538462   0.3076923   0.1818182), wk = 0.0129102
        k (   94) = (   0.1538462   0.3076923   0.2727273), wk = 0.0129102
        k (   95) = (   0.1538462   0.3076923   0.3636364), wk = 0.0129102
        k (   96) = (   0.1538462   0.3076923   0.4545455), wk = 0.0129102
        k (   97) = (   0.1538462   0.3846154   0.0000000), wk = 0.0129102
        k (   98) = (   0.1538462   0.3846154   0.0909091), wk = 0.0129102
        k (   99) = (   0.1538462   0.3846154   0.1818182), wk = 0.0129102
        k (  100) = (   0.1538462   0.3846154   0.2727273), wk = 0.0129102
        k (  101) = (   0.1538462   0.3846154   0.3636364), wk = 0.0129102
        k (  102) = (   0.1538462   0.3846154   0.4545455), wk = 0.0129102
        k (  103) = (   0.2307692   0.2307692   0.0000000), wk = 0.0064551
        k (  104) = (   0.2307692   0.2307692   0.0909091), wk = 0.0129102
        k (  105) = (   0.2307692   0.2307692   0.1818182), wk = 0.0129102
        k (  106) = (   0.2307692   0.2307692   0.2727273), wk = 0.0129102
        k (  107) = (   0.2307692   0.2307692   0.3636364), wk = 0.0129102
        k (  108) = (   0.2307692   0.2307692   0.4545455), wk = 0.0129102
        k (  109) = (   0.2307692   0.3076923   0.0000000), wk = 0.0129102
        k (  110) = (   0.2307692   0.3076923   0.0909091), wk = 0.0129102
        k (  111) = (   0.2307692   0.3076923   0.1818182), wk = 0.0129102
        k (  112) = (   0.2307692   0.3076923   0.2727273), wk = 0.0129102
        k (  113) = (   0.2307692   0.3076923   0.3636364), wk = 0.0129102
        k (  114) = (   0.2307692   0.3076923   0.4545455), wk = 0.0129102
        k (  115) = (   0.2307692   0.3846154   0.0000000), wk = 0.0064551
        k (  116) = (   0.2307692   0.3846154   0.0909091), wk = 0.0129102
        k (  117) = (   0.2307692   0.3846154   0.1818182), wk = 0.0129102
        k (  118) = (   0.2307692   0.3846154   0.2727273), wk = 0.0129102
        k (  119) = (   0.2307692   0.3846154   0.3636364), wk = 0.0129102
        k (  120) = (   0.2307692   0.3846154   0.4545455), wk = 0.0129102
        k (  121) = (   0.3076923   0.3076923   0.0000000), wk = 0.0064551
        k (  122) = (   0.3076923   0.3076923   0.0909091), wk = 0.0129102
        k (  123) = (   0.3076923   0.3076923   0.1818182), wk = 0.0129102
        k (  124) = (   0.3076923   0.3076923   0.2727273), wk = 0.0129102
        k (  125) = (   0.3076923   0.3076923   0.3636364), wk = 0.0129102
        k (  126) = (   0.3076923   0.3076923   0.4545455), wk = 0.0129102
        k (  127) = (   0.0000000   0.0769231  -0.0909091), wk = 0.0064551
        k (  128) = (   0.0000000   0.0769231  -0.1818182), wk = 0.0064551
        k (  129) = (   0.0000000   0.0769231  -0.2727273), wk = 0.0064551
        k (  130) = (   0.0000000   0.0769231  -0.3636364), wk = 0.0064551
        k (  131) = (   0.0000000   0.0769231  -0.4545455), wk = 0.0064551
        k (  132) = (   0.0000000   0.1538462  -0.0909091), wk = 0.0064551
        k (  133) = (   0.0000000   0.1538462  -0.1818182), wk = 0.0064551
        k (  134) = (   0.0000000   0.1538462  -0.2727273), wk = 0.0064551
        k (  135) = (   0.0000000   0.1538462  -0.3636364), wk = 0.0064551
        k (  136) = (   0.0000000   0.1538462  -0.4545455), wk = 0.0064551
        k (  137) = (   0.0000000   0.2307692  -0.0909091), wk = 0.0064551
        k (  138) = (   0.0000000   0.2307692  -0.1818182), wk = 0.0064551
        k (  139) = (   0.0000000   0.2307692  -0.2727273), wk = 0.0064551
        k (  140) = (   0.0000000   0.2307692  -0.3636364), wk = 0.0064551
        k (  141) = (   0.0000000   0.2307692  -0.4545455), wk = 0.0064551
        k (  142) = (   0.0000000   0.3076923  -0.0909091), wk = 0.0064551
        k (  143) = (   0.0000000   0.3076923  -0.1818182), wk = 0.0064551
        k (  144) = (   0.0000000   0.3076923  -0.2727273), wk = 0.0064551
        k (  145) = (   0.0000000   0.3076923  -0.3636364), wk = 0.0064551
        k (  146) = (   0.0000000   0.3076923  -0.4545455), wk = 0.0064551
        k (  147) = (   0.0000000   0.3846154  -0.0909091), wk = 0.0064551
        k (  148) = (   0.0000000   0.3846154  -0.1818182), wk = 0.0064551
        k (  149) = (   0.0000000   0.3846154  -0.2727273), wk = 0.0064551
        k (  150) = (   0.0000000   0.3846154  -0.3636364), wk = 0.0064551
        k (  151) = (   0.0000000   0.3846154  -0.4545455), wk = 0.0064551
        k (  152) = (   0.0000000   0.4615385  -0.0909091), wk = 0.0064551
        k (  153) = (   0.0000000   0.4615385  -0.1818182), wk = 0.0064551
        k (  154) = (   0.0000000   0.4615385  -0.2727273), wk = 0.0064551
        k (  155) = (   0.0000000   0.4615385  -0.3636364), wk = 0.0064551
        k (  156) = (   0.0000000   0.4615385  -0.4545455), wk = 0.0064551
        k (  157) = (  -0.0769231   0.2307692  -0.0909091), wk = 0.0129102
        k (  158) = (  -0.0769231   0.2307692  -0.1818182), wk = 0.0129102
        k (  159) = (  -0.0769231   0.2307692  -0.2727273), wk = 0.0129102
        k (  160) = (  -0.0769231   0.2307692  -0.3636364), wk = 0.0129102
        k (  161) = (  -0.0769231   0.2307692  -0.4545455), wk = 0.0129102
        k (  162) = (  -0.0769231   0.3076923  -0.0909091), wk = 0.0129102
        k (  163) = (  -0.0769231   0.3076923  -0.1818182), wk = 0.0129102
        k (  164) = (  -0.0769231   0.3076923  -0.2727273), wk = 0.0129102
        k (  165) = (  -0.0769231   0.3076923  -0.3636364), wk = 0.0129102
        k (  166) = (  -0.0769231   0.3076923  -0.4545455), wk = 0.0129102
        k (  167) = (  -0.0769231   0.3846154  -0.0909091), wk = 0.0129102
        k (  168) = (  -0.0769231   0.3846154  -0.1818182), wk = 0.0129102
        k (  169) = (  -0.0769231   0.3846154  -0.2727273), wk = 0.0129102
        k (  170) = (  -0.0769231   0.3846154  -0.3636364), wk = 0.0129102
        k (  171) = (  -0.0769231   0.3846154  -0.4545455), wk = 0.0129102
        k (  172) = (  -0.0769231   0.4615385  -0.0909091), wk = 0.0129102
        k (  173) = (  -0.0769231   0.4615385  -0.1818182), wk = 0.0129102
        k (  174) = (  -0.0769231   0.4615385  -0.2727273), wk = 0.0129102
        k (  175) = (  -0.0769231   0.4615385  -0.3636364), wk = 0.0129102
        k (  176) = (  -0.0769231   0.4615385  -0.4545455), wk = 0.0129102
        k (  177) = (  -0.1538462   0.3846154  -0.0909091), wk = 0.0129102
        k (  178) = (  -0.1538462   0.3846154  -0.1818182), wk = 0.0129102
        k (  179) = (  -0.1538462   0.3846154  -0.2727273), wk = 0.0129102
        k (  180) = (  -0.1538462   0.3846154  -0.3636364), wk = 0.0129102
        k (  181) = (  -0.1538462   0.3846154  -0.4545455), wk = 0.0129102
        k (  182) = (  -0.1538462   0.4615385  -0.0909091), wk = 0.0129102
        k (  183) = (  -0.1538462   0.4615385  -0.1818182), wk = 0.0129102
        k (  184) = (  -0.1538462   0.4615385  -0.2727273), wk = 0.0129102
        k (  185) = (  -0.1538462   0.4615385  -0.3636364), wk = 0.0129102
        k (  186) = (  -0.1538462   0.4615385  -0.4545455), wk = 0.0129102
        k (  187) = (  -0.1538462   0.5384615  -0.0909091), wk = 0.0129102
        k (  188) = (  -0.1538462   0.5384615  -0.1818182), wk = 0.0129102
        k (  189) = (  -0.1538462   0.5384615  -0.2727273), wk = 0.0129102
        k (  190) = (  -0.1538462   0.5384615  -0.3636364), wk = 0.0129102
        k (  191) = (  -0.1538462   0.5384615  -0.4545455), wk = 0.0129102
        k (  192) = (  -0.2307692   0.5384615  -0.0909091), wk = 0.0129102
        k (  193) = (  -0.2307692   0.5384615  -0.1818182), wk = 0.0129102
        k (  194) = (  -0.2307692   0.5384615  -0.2727273), wk = 0.0129102
        k (  195) = (  -0.2307692   0.5384615  -0.3636364), wk = 0.0129102
        k (  196) = (  -0.2307692   0.5384615  -0.4545455), wk = 0.0129102

     Atomic wfc used for the projector on the Hubbard manifold are orthogonalized

     Total time spent up to now is:
     HP           :     12.35s CPU     29.48s WALL

      =--------------------------------------------=
                 SOLVE THE LINEAR SYSTEM
      =--------------------------------------------=

      atom #  1   q point #   1   iter #   1
 
     Pert. #  1: Fermi energy shift (Ry) =     3.6551E-01     1.5966E-11
      chi:   1  -0.2785901861
      Average number of iter. to solve lin. system:   37.8
      Total CPU time :    84.5 s

      atom #  1   q point #   1   iter #   2
 
     Pert. #  1: Fermi energy shift (Ry) =     1.5318E-01     1.9526E-10
      chi:   1  -0.0465787983   residue:    0.2320113878
      Average number of iter. to solve lin. system:   14.2
      Total CPU time :   110.9 s

      atom #  1   q point #   1   iter #   3
 
     Pert. #  1: Fermi energy shift (Ry) =     2.3000E-01    -5.2785E-12
      chi:   1  -0.1273008140   residue:    0.0807220156
      Average number of iter. to solve lin. system:   13.5
      Total CPU time :   133.6 s

      atom #  1   q point #   1   iter #   4
 
     Pert. #  1: Fermi energy shift (Ry) =     2.3251E-01     9.1864E-12
      chi:   1  -0.1280773210   residue:    0.0007765070
      Average number of iter. to solve lin. system:   14.8
      Total CPU time :   157.1 s

      atom #  1   q point #   1   iter #   5
 
     Pert. #  1: Fermi energy shift (Ry) =     2.3240E-01     9.0967E-12
      chi:   1  -0.1274127465   residue:    0.0006645745
      Average number of iter. to solve lin. system:   15.4
      Total CPU time :   182.2 s

      atom #  1   q point #   1   iter #   6
 
     Pert. #  1: Fermi energy shift (Ry) =     2.3214E-01     9.0135E-12
      chi:   1  -0.1271901637   residue:    0.0002225828
      Average number of iter. to solve lin. system:   15.4
      Total CPU time :   207.6 s

      atom #  1   q point #   1   iter #   7
 
     Pert. #  1: Fermi energy shift (Ry) =     2.3193E-01     8.1503E-12
      chi:   1  -0.1272110732   residue:    0.0000209094
      Average number of iter. to solve lin. system:   15.0
      Total CPU time :   232.7 s

      atom #  1   q point #   1   iter #   8
 
     Pert. #  1: Fermi energy shift (Ry) =     2.3200E-01     9.6043E-12
      chi:   1  -0.1272162624   residue:    0.0000051892
      Average number of iter. to solve lin. system:   15.1
      Total CPU time :   258.3 s

      atom #  1   q point #   1   iter #   9
 
     Pert. #  1: Fermi energy shift (Ry) =     2.3201E-01     9.1002E-12
      chi:   1  -0.1272194445   residue:    0.0000031822
      Average number of iter. to solve lin. system:   14.7
      Total CPU time :   281.7 s

      atom #  1   q point #   1   iter #  10
 
     Pert. #  1: Fermi energy shift (Ry) =     2.3202E-01     9.1314E-12
      chi:   1  -0.1272189346   residue:    0.0000005099
      Average number of iter. to solve lin. system:   15.1
      Total CPU time :   305.9 s

      atom #  1   q point #   1   iter #  11
 
     Pert. #  1: Fermi energy shift (Ry) =     2.3202E-01     9.1282E-12
      chi:   1  -0.1272199111   residue:    0.0000009765
      Average number of iter. to solve lin. system:   15.9
      Total CPU time :   331.2 s

      atom #  1   q point #   1   iter #  12
 
     Pert. #  1: Fermi energy shift (Ry) =     2.3202E-01     9.1313E-12
      chi:   1  -0.1272199351   residue:    0.0000000240
      Average number of iter. to solve lin. system:   14.8
      Total CPU time :   352.6 s
      
      =--------------------------------------------=
             CONVERGENCE HAS BEEN REACHED
      =--------------------------------------------=


     =-------------------------------------------------------------=

     Calculation for q #   2 = (   0.0000000   0.3884160   0.0000000 )

     =-------------------------------------------------------------=

     Performing NSCF calculation at all points k and k+q...
     Subspace diagonalization in iterative solution of the eigenvalue problem:
     one sub-group per band group will be used
     scalapack distributed-memory algorithm (size of sub-group:  4*  4 procs)

 
     Parallelization info
     --------------------
     sticks:   dense  smooth     PW     G-vecs:    dense   smooth      PW
     Min          62      62     18                 2648     2648     422
     Max          63      63     19                 2655     2655     429
     Sum        1507    1507    439                63657    63657   10217
 
     Using Slab Decomposition
 


     bravais-lattice index     =            0
     lattice parameter (alat)  =       7.1073  a.u.
     unit-cell volume          =     407.2428 (a.u.)^3
     number of atoms/cell      =            3
     number of atomic types    =            2
     number of electrons       =        50.00
     number of Kohn-Sham states=           30
     kinetic-energy cutoff     =     110.0000  Ry
     charge density cutoff     =     440.0000  Ry
     Exchange-correlation= PBE
                           (   1   4   3   4   0   0   0)
     Hubbard projectors: ortho-atomic
     Hubbard parameters of DFT+U (Dudarev formulation) in eV:
     U(Pt-5d) =  0.0001

     Internal variables: lda_plus_u = T, lda_plus_u_kind = 0

     celldm(1)=   7.107260  celldm(2)=   0.000000  celldm(3)=   0.000000
     celldm(4)=   0.000000  celldm(5)=   0.000000  celldm(6)=   0.000000

     crystal axes: (cart. coord. in units of alat)
               a(1) = (   0.990948   0.000000   0.000000 )  
               a(2) = (  -0.495474   0.858186   0.000000 )  
               a(3) = (   0.000000   0.000000   1.333872 )  

     reciprocal axes: (cart. coord. in units 2 pi/alat)
               b(1) = (  1.009134  0.582624  0.000000 )  
               b(2) = (  0.000000  1.165248  0.000000 )  
               b(3) = (  0.000000  0.000000  0.749697 )  


     PseudoPot. # 1 for Pt read from file:
     ./Pt.upf
     MD5 check sum: 3caa314b32314335c676ebce8d0bd64e
     Pseudo is Norm-conserving + core correction, Zval = 18.0
     Generated using ONCVPSP code by D. R. Hamann
     Using radial grid of 1374 points,  8 beta functions with: 
                l(1) =   0
                l(2) =   0
                l(3) =   1
                l(4) =   1
                l(5) =   2
                l(6) =   2
                l(7) =   3
                l(8) =   3

     PseudoPot. # 2 for Se read from file:
     ./Se.upf
     MD5 check sum: 3cc46b3642295b3f4fdae63b742ce36d
     Pseudo is Norm-conserving + core correction, Zval = 16.0
     Generated using ONCVPSP code by D. R. Hamann
     Using radial grid of 1214 points,  6 beta functions with: 
                l(1) =   0
                l(2) =   0
                l(3) =   1
                l(4) =   1
                l(5) =   2
                l(6) =   2

     atomic species   valence    mass     pseudopotential
        Pt            18.00   195.08400     Pt( 1.00)
        Se            16.00    78.96000     Se( 1.00)

     12 Sym. Ops., with inversion, found



   Cartesian axes

     site n.     atom                  positions (alat units)
         1           Pt  tau(   1) = (   0.0000000   0.0000000   0.0000000  )
         2           Se  tau(   2) = (   0.4954747   0.2860619   0.9791000  )
         3           Se  tau(   3) = (  -0.0000005   0.5721246   0.3547718  )

     number of k points=  2002  Methfessel-Paxton smearing, width (Ry)=  0.0080

     Number of k-points >= 100: set verbosity='high' to print them.

     Dense  grid:    63657 G-vectors     FFT dimensions: (  48,  48,  64)

     Estimated max dynamical RAM per process >      11.77 MB

     Estimated total dynamical RAM >     282.46 MB

     The potential is recalculated from file :
     .//lscratch.bUPtSe2/HP/bUPtSe2.save/charge-density


     STARTING HUBBARD OCCUPATIONS:

     =================== HUBBARD OCCUPATIONS ===================
     ------------------------ ATOM    1 ------------------------
     Tr[ns(  1)] =   8.74060
     eigenvalues:
       0.719  0.719  0.975  0.979  0.979
     eigenvectors (columns):
       0.000  0.000 -1.000 -0.000  0.000
      -0.419  0.691  0.000 -0.560  0.185
       0.691  0.419  0.000  0.185  0.560
       0.504  0.306 -0.000 -0.253 -0.767
      -0.306  0.504 -0.000  0.767 -0.253
     occupation matrix ns (before diag.):
       0.975 -0.000 -0.000 -0.000 -0.000
      -0.000  0.809 -0.000  0.000 -0.124
      -0.000 -0.000  0.809 -0.124 -0.000
      -0.000  0.000 -0.124  0.888  0.000
      -0.000 -0.124 -0.000  0.000  0.888

     Number of occupied Hubbard levels =    8.7406

     Atomic wfc used for Hubbard projectors are orthogonalized

     Starting wfcs are   28 atomic +    2 random wfcs

     Band Structure Calculation
     Davidson diagonalization with overlap

     ethr =  1.00E-11,  avg # of iterations = 18.1

     total cpu time spent up to now is       -1.0 secs

     End of band structure calculation

     Number of k-points >= 100: set verbosity='high' to print the bands.

     the Fermi energy is    13.8417 ev
     (compare with:    13.8421 eV, computed in scf)

     Writing all to output data dir .//lscratch.bUPtSe2/HP/bUPtSe2.save/
     Done!

                   WRITING LINEAR-RESPONSE SUMMARY:


     Number of symmetries in the small group of q, nsymq =  2

     Symmetry matrices (and vectors of fractional translations if f/=0):

     isym =  1     identity                                     

     cryst.   s( 1) = (     1          0          0      )
                      (     0          1          0      )
                      (     0          0          1      )

     cart.    s( 1) = (  1.0000000  0.0000000  0.0000000 )
                      (  0.0000000  1.0000000  0.0000000 )
                      (  0.0000000  0.0000000  1.0000000 )


     isym =  2     inv. 180 deg rotation - cart. axis [1,0,0]   

     cryst.   s( 2) = (    -1          0          0      )
                      (     1          1          0      )
                      (     0          0          1      )

     cart.    s( 2) = ( -1.0000000 -0.0000000  0.0000000 )
                      (  0.0000000  1.0000000  0.0000000 )
                      (  0.0000000  0.0000000  1.0000000 )


     G cutoff =  562.9857  (   2650 G-vectors)     FFT grid: ( 48, 48, 64)

     Number of k (and k+q if q/=0) points =  2002  Methfessel-Paxton smearing, width (Ry) =  0.0080

                       cart. coord. (in units 2pi/alat)
        k (    1) = (   0.0000000   0.0000000   0.0000000), wk = 0.0010758
        k (    2) = (   0.0000000   0.3884160   0.0000000), wk = 0.0000000
        k (    3) = (   0.0000000   0.0000000   0.0681543), wk = 0.0010758
        k (    4) = (   0.0000000   0.3884160   0.0681543), wk = 0.0000000
        k (    5) = (   0.0000000   0.0000000   0.1363086), wk = 0.0010758
        k (    6) = (   0.0000000   0.3884160   0.1363086), wk = 0.0000000
        k (    7) = (   0.0000000   0.0000000   0.2044629), wk = 0.0010758
        k (    8) = (   0.0000000   0.3884160   0.2044629), wk = 0.0000000
        k (    9) = (   0.0000000   0.0000000   0.2726172), wk = 0.0010758
        k (   10) = (   0.0000000   0.3884160   0.2726172), wk = 0.0000000
        k (   11) = (   0.0000000   0.0000000   0.3407715), wk = 0.0010758
        k (   12) = (   0.0000000   0.3884160   0.3407715), wk = 0.0000000
        k (   13) = (   0.0000000   0.0896345   0.0000000), wk = 0.0010758
        k (   14) = (   0.0000000   0.4780504   0.0000000), wk = 0.0000000
        k (   15) = (   0.0000000   0.0896345   0.0681543), wk = 0.0010758
        k (   16) = (   0.0000000   0.4780504   0.0681543), wk = 0.0000000
        k (   17) = (   0.0000000   0.0896345   0.1363086), wk = 0.0010758
        k (   18) = (   0.0000000   0.4780504   0.1363086), wk = 0.0000000
        k (   19) = (   0.0000000   0.0896345   0.2044629), wk = 0.0010758
        k (   20) = (   0.0000000   0.4780504   0.2044629), wk = 0.0000000
        k (   21) = (   0.0000000   0.0896345   0.2726172), wk = 0.0010758
        k (   22) = (   0.0000000   0.4780504   0.2726172), wk = 0.0000000
        k (   23) = (   0.0000000   0.0896345   0.3407715), wk = 0.0010758
        k (   24) = (   0.0000000   0.4780504   0.3407715), wk = 0.0000000
        k (   25) = (   0.0000000   0.1792689   0.0000000), wk = 0.0010758
        k (   26) = (   0.0000000   0.5676849   0.0000000), wk = 0.0000000
        k (   27) = (   0.0000000   0.1792689   0.0681543), wk = 0.0010758
        k (   28) = (   0.0000000   0.5676849   0.0681543), wk = 0.0000000
        k (   29) = (   0.0000000   0.1792689   0.1363086), wk = 0.0010758
        k (   30) = (   0.0000000   0.5676849   0.1363086), wk = 0.0000000
        k (   31) = (   0.0000000   0.1792689   0.2044629), wk = 0.0010758
        k (   32) = (   0.0000000   0.5676849   0.2044629), wk = 0.0000000
        k (   33) = (   0.0000000   0.1792689   0.2726172), wk = 0.0010758
        k (   34) = (   0.0000000   0.5676849   0.2726172), wk = 0.0000000
        k (   35) = (   0.0000000   0.1792689   0.3407715), wk = 0.0010758
        k (   36) = (   0.0000000   0.5676849   0.3407715), wk = 0.0000000
        k (   37) = (   0.0000000   0.2689034   0.0000000), wk = 0.0010758
        k (   38) = (   0.0000000   0.6573193   0.0000000), wk = 0.0000000
        k (   39) = (   0.0000000   0.2689034   0.0681543), wk = 0.0010758
        k (   40) = (   0.0000000   0.6573193   0.0681543), wk = 0.0000000
        k (   41) = (   0.0000000   0.2689034   0.1363086), wk = 0.0010758
        k (   42) = (   0.0000000   0.6573193   0.1363086), wk = 0.0000000
        k (   43) = (   0.0000000   0.2689034   0.2044629), wk = 0.0010758
        k (   44) = (   0.0000000   0.6573193   0.2044629), wk = 0.0000000
        k (   45) = (   0.0000000   0.2689034   0.2726172), wk = 0.0010758
        k (   46) = (   0.0000000   0.6573193   0.2726172), wk = 0.0000000
        k (   47) = (   0.0000000   0.2689034   0.3407715), wk = 0.0010758
        k (   48) = (   0.0000000   0.6573193   0.3407715), wk = 0.0000000
        k (   49) = (   0.0000000   0.3585378   0.0000000), wk = 0.0010758
        k (   50) = (   0.0000000   0.7469538   0.0000000), wk = 0.0000000
        k (   51) = (   0.0000000   0.3585378   0.0681543), wk = 0.0010758
        k (   52) = (   0.0000000   0.7469538   0.0681543), wk = 0.0000000
        k (   53) = (   0.0000000   0.3585378   0.1363086), wk = 0.0010758
        k (   54) = (   0.0000000   0.7469538   0.1363086), wk = 0.0000000
        k (   55) = (   0.0000000   0.3585378   0.2044629), wk = 0.0010758
        k (   56) = (   0.0000000   0.7469538   0.2044629), wk = 0.0000000
        k (   57) = (   0.0000000   0.3585378   0.2726172), wk = 0.0010758
        k (   58) = (   0.0000000   0.7469538   0.2726172), wk = 0.0000000
        k (   59) = (   0.0000000   0.3585378   0.3407715), wk = 0.0010758
        k (   60) = (   0.0000000   0.7469538   0.3407715), wk = 0.0000000
        k (   61) = (   0.0000000   0.4481723   0.0000000), wk = 0.0010758
        k (   62) = (   0.0000000   0.8365882   0.0000000), wk = 0.0000000
        k (   63) = (   0.0000000   0.4481723   0.0681543), wk = 0.0010758
        k (   64) = (   0.0000000   0.8365882   0.0681543), wk = 0.0000000
        k (   65) = (   0.0000000   0.4481723   0.1363086), wk = 0.0010758
        k (   66) = (   0.0000000   0.8365882   0.1363086), wk = 0.0000000
        k (   67) = (   0.0000000   0.4481723   0.2044629), wk = 0.0010758
        k (   68) = (   0.0000000   0.8365882   0.2044629), wk = 0.0000000
        k (   69) = (   0.0000000   0.4481723   0.2726172), wk = 0.0010758
        k (   70) = (   0.0000000   0.8365882   0.2726172), wk = 0.0000000
        k (   71) = (   0.0000000   0.4481723   0.3407715), wk = 0.0010758
        k (   72) = (   0.0000000   0.8365882   0.3407715), wk = 0.0000000
        k (   73) = (   0.0000000   0.5378067   0.0000000), wk = 0.0010758
        k (   74) = (   0.0000000   0.9262227   0.0000000), wk = 0.0000000
        k (   75) = (   0.0000000   0.5378067   0.0681543), wk = 0.0010758
        k (   76) = (   0.0000000   0.9262227   0.0681543), wk = 0.0000000
        k (   77) = (   0.0000000   0.5378067   0.1363086), wk = 0.0010758
        k (   78) = (   0.0000000   0.9262227   0.1363086), wk = 0.0000000
        k (   79) = (   0.0000000   0.5378067   0.2044629), wk = 0.0010758
        k (   80) = (   0.0000000   0.9262227   0.2044629), wk = 0.0000000
        k (   81) = (   0.0000000   0.5378067   0.2726172), wk = 0.0010758
        k (   82) = (   0.0000000   0.9262227   0.2726172), wk = 0.0000000
        k (   83) = (   0.0000000   0.5378067   0.3407715), wk = 0.0010758
        k (   84) = (   0.0000000   0.9262227   0.3407715), wk = 0.0000000
        k (   85) = (   0.0776257   0.1344517   0.0000000), wk = 0.0021517
        k (   86) = (   0.0776257   0.5228677   0.0000000), wk = 0.0000000
        k (   87) = (   0.0776257   0.1344517   0.0681543), wk = 0.0021517
        k (   88) = (   0.0776257   0.5228677   0.0681543), wk = 0.0000000
        k (   89) = (   0.0776257   0.1344517   0.1363086), wk = 0.0021517
        k (   90) = (   0.0776257   0.5228677   0.1363086), wk = 0.0000000
        k (   91) = (   0.0776257   0.1344517   0.2044629), wk = 0.0021517
        k (   92) = (   0.0776257   0.5228677   0.2044629), wk = 0.0000000
        k (   93) = (   0.0776257   0.1344517   0.2726172), wk = 0.0021517
        k (   94) = (   0.0776257   0.5228677   0.2726172), wk = 0.0000000
        k (   95) = (   0.0776257   0.1344517   0.3407715), wk = 0.0021517
        k (   96) = (   0.0776257   0.5228677   0.3407715), wk = 0.0000000
        k (   97) = (   0.0776257   0.2240861   0.0000000), wk = 0.0021517
        k (   98) = (   0.0776257   0.6125021   0.0000000), wk = 0.0000000
        k (   99) = (   0.0776257   0.2240861   0.0681543), wk = 0.0021517
        k (  100) = (   0.0776257   0.6125021   0.0681543), wk = 0.0000000
        k (  101) = (   0.0776257   0.2240861   0.1363086), wk = 0.0021517
        k (  102) = (   0.0776257   0.6125021   0.1363086), wk = 0.0000000
        k (  103) = (   0.0776257   0.2240861   0.2044629), wk = 0.0021517
        k (  104) = (   0.0776257   0.6125021   0.2044629), wk = 0.0000000
        k (  105) = (   0.0776257   0.2240861   0.2726172), wk = 0.0021517
        k (  106) = (   0.0776257   0.6125021   0.2726172), wk = 0.0000000
        k (  107) = (   0.0776257   0.2240861   0.3407715), wk = 0.0021517
        k (  108) = (   0.0776257   0.6125021   0.3407715), wk = 0.0000000
        k (  109) = (   0.0776257   0.3137206   0.0000000), wk = 0.0021517
        k (  110) = (   0.0776257   0.7021366   0.0000000), wk = 0.0000000
        k (  111) = (   0.0776257   0.3137206   0.0681543), wk = 0.0021517
        k (  112) = (   0.0776257   0.7021366   0.0681543), wk = 0.0000000
        k (  113) = (   0.0776257   0.3137206   0.1363086), wk = 0.0021517
        k (  114) = (   0.0776257   0.7021366   0.1363086), wk = 0.0000000
        k (  115) = (   0.0776257   0.3137206   0.2044629), wk = 0.0021517
        k (  116) = (   0.0776257   0.7021366   0.2044629), wk = 0.0000000
        k (  117) = (   0.0776257   0.3137206   0.2726172), wk = 0.0021517
        k (  118) = (   0.0776257   0.7021366   0.2726172), wk = 0.0000000
        k (  119) = (   0.0776257   0.3137206   0.3407715), wk = 0.0021517
        k (  120) = (   0.0776257   0.7021366   0.3407715), wk = 0.0000000
        k (  121) = (   0.0776257   0.4033550   0.0000000), wk = 0.0021517
        k (  122) = (   0.0776257   0.7917710   0.0000000), wk = 0.0000000
        k (  123) = (   0.0776257   0.4033550   0.0681543), wk = 0.0021517
        k (  124) = (   0.0776257   0.7917710   0.0681543), wk = 0.0000000
        k (  125) = (   0.0776257   0.4033550   0.1363086), wk = 0.0021517
        k (  126) = (   0.0776257   0.7917710   0.1363086), wk = 0.0000000
        k (  127) = (   0.0776257   0.4033550   0.2044629), wk = 0.0021517
        k (  128) = (   0.0776257   0.7917710   0.2044629), wk = 0.0000000
        k (  129) = (   0.0776257   0.4033550   0.2726172), wk = 0.0021517
        k (  130) = (   0.0776257   0.7917710   0.2726172), wk = 0.0000000
        k (  131) = (   0.0776257   0.4033550   0.3407715), wk = 0.0021517
        k (  132) = (   0.0776257   0.7917710   0.3407715), wk = 0.0000000
        k (  133) = (   0.0776257   0.4929895   0.0000000), wk = 0.0021517
        k (  134) = (   0.0776257   0.8814055   0.0000000), wk = 0.0000000
        k (  135) = (   0.0776257   0.4929895   0.0681543), wk = 0.0021517
        k (  136) = (   0.0776257   0.8814055   0.0681543), wk = 0.0000000
        k (  137) = (   0.0776257   0.4929895   0.1363086), wk = 0.0021517
        k (  138) = (   0.0776257   0.8814055   0.1363086), wk = 0.0000000
        k (  139) = (   0.0776257   0.4929895   0.2044629), wk = 0.0021517
        k (  140) = (   0.0776257   0.8814055   0.2044629), wk = 0.0000000
        k (  141) = (   0.0776257   0.4929895   0.2726172), wk = 0.0021517
        k (  142) = (   0.0776257   0.8814055   0.2726172), wk = 0.0000000
        k (  143) = (   0.0776257   0.4929895   0.3407715), wk = 0.0021517
        k (  144) = (   0.0776257   0.8814055   0.3407715), wk = 0.0000000
        k (  145) = (   0.0776257   0.5826240   0.0000000), wk = 0.0021517
        k (  146) = (   0.0776257   0.9710399   0.0000000), wk = 0.0000000
        k (  147) = (   0.0776257   0.5826240   0.0681543), wk = 0.0021517
        k (  148) = (   0.0776257   0.9710399   0.0681543), wk = 0.0000000
        k (  149) = (   0.0776257   0.5826240   0.1363086), wk = 0.0021517
        k (  150) = (   0.0776257   0.9710399   0.1363086), wk = 0.0000000
        k (  151) = (   0.0776257   0.5826240   0.2044629), wk = 0.0021517
        k (  152) = (   0.0776257   0.9710399   0.2044629), wk = 0.0000000
        k (  153) = (   0.0776257   0.5826240   0.2726172), wk = 0.0021517
        k (  154) = (   0.0776257   0.9710399   0.2726172), wk = 0.0000000
        k (  155) = (   0.0776257   0.5826240   0.3407715), wk = 0.0021517
        k (  156) = (   0.0776257   0.9710399   0.3407715), wk = 0.0000000
        k (  157) = (   0.1552514   0.2689034   0.0000000), wk = 0.0021517
        k (  158) = (   0.1552514   0.6573193   0.0000000), wk = 0.0000000
        k (  159) = (   0.1552514   0.2689034   0.0681543), wk = 0.0021517
        k (  160) = (   0.1552514   0.6573193   0.0681543), wk = 0.0000000
        k (  161) = (   0.1552514   0.2689034   0.1363086), wk = 0.0021517
        k (  162) = (   0.1552514   0.6573193   0.1363086), wk = 0.0000000
        k (  163) = (   0.1552514   0.2689034   0.2044629), wk = 0.0021517
        k (  164) = (   0.1552514   0.6573193   0.2044629), wk = 0.0000000
        k (  165) = (   0.1552514   0.2689034   0.2726172), wk = 0.0021517
        k (  166) = (   0.1552514   0.6573193   0.2726172), wk = 0.0000000
        k (  167) = (   0.1552514   0.2689034   0.3407715), wk = 0.0021517
        k (  168) = (   0.1552514   0.6573193   0.3407715), wk = 0.0000000
        k (  169) = (   0.1552514   0.3585378   0.0000000), wk = 0.0021517
        k (  170) = (   0.1552514   0.7469538   0.0000000), wk = 0.0000000
        k (  171) = (   0.1552514   0.3585378   0.0681543), wk = 0.0021517
        k (  172) = (   0.1552514   0.7469538   0.0681543), wk = 0.0000000
        k (  173) = (   0.1552514   0.3585378   0.1363086), wk = 0.0021517
        k (  174) = (   0.1552514   0.7469538   0.1363086), wk = 0.0000000
        k (  175) = (   0.1552514   0.3585378   0.2044629), wk = 0.0021517
        k (  176) = (   0.1552514   0.7469538   0.2044629), wk = 0.0000000
        k (  177) = (   0.1552514   0.3585378   0.2726172), wk = 0.0021517
        k (  178) = (   0.1552514   0.7469538   0.2726172), wk = 0.0000000
        k (  179) = (   0.1552514   0.3585378   0.3407715), wk = 0.0021517
        k (  180) = (   0.1552514   0.7469538   0.3407715), wk = 0.0000000
        k (  181) = (   0.1552514   0.4481723   0.0000000), wk = 0.0021517
        k (  182) = (   0.1552514   0.8365882   0.0000000), wk = 0.0000000
        k (  183) = (   0.1552514   0.4481723   0.0681543), wk = 0.0021517
        k (  184) = (   0.1552514   0.8365882   0.0681543), wk = 0.0000000
        k (  185) = (   0.1552514   0.4481723   0.1363086), wk = 0.0021517
        k (  186) = (   0.1552514   0.8365882   0.1363086), wk = 0.0000000
        k (  187) = (   0.1552514   0.4481723   0.2044629), wk = 0.0021517
        k (  188) = (   0.1552514   0.8365882   0.2044629), wk = 0.0000000
        k (  189) = (   0.1552514   0.4481723   0.2726172), wk = 0.0021517
        k (  190) = (   0.1552514   0.8365882   0.2726172), wk = 0.0000000
        k (  191) = (   0.1552514   0.4481723   0.3407715), wk = 0.0021517
        k (  192) = (   0.1552514   0.8365882   0.3407715), wk = 0.0000000
        k (  193) = (   0.1552514   0.5378067   0.0000000), wk = 0.0021517
        k (  194) = (   0.1552514   0.9262227   0.0000000), wk = 0.0000000
        k (  195) = (   0.1552514   0.5378067   0.0681543), wk = 0.0021517
        k (  196) = (   0.1552514   0.9262227   0.0681543), wk = 0.0000000
        k (  197) = (   0.1552514   0.5378067   0.1363086), wk = 0.0021517
        k (  198) = (   0.1552514   0.9262227   0.1363086), wk = 0.0000000
        k (  199) = (   0.1552514   0.5378067   0.2044629), wk = 0.0021517
        k (  200) = (   0.1552514   0.9262227   0.2044629), wk = 0.0000000
        k (  201) = (   0.1552514   0.5378067   0.2726172), wk = 0.0021517
        k (  202) = (   0.1552514   0.9262227   0.2726172), wk = 0.0000000
        k (  203) = (   0.1552514   0.5378067   0.3407715), wk = 0.0021517
        k (  204) = (   0.1552514   0.9262227   0.3407715), wk = 0.0000000
        k (  205) = (   0.2328771   0.4033550   0.0000000), wk = 0.0021517
        k (  206) = (   0.2328771   0.7917710   0.0000000), wk = 0.0000000
        k (  207) = (   0.2328771   0.4033550   0.0681543), wk = 0.0021517
        k (  208) = (   0.2328771   0.7917710   0.0681543), wk = 0.0000000
        k (  209) = (   0.2328771   0.4033550   0.1363086), wk = 0.0021517
        k (  210) = (   0.2328771   0.7917710   0.1363086), wk = 0.0000000
        k (  211) = (   0.2328771   0.4033550   0.2044629), wk = 0.0021517
        k (  212) = (   0.2328771   0.7917710   0.2044629), wk = 0.0000000
        k (  213) = (   0.2328771   0.4033550   0.2726172), wk = 0.0021517
        k (  214) = (   0.2328771   0.7917710   0.2726172), wk = 0.0000000
        k (  215) = (   0.2328771   0.4033550   0.3407715), wk = 0.0021517
        k (  216) = (   0.2328771   0.7917710   0.3407715), wk = 0.0000000
        k (  217) = (   0.2328771   0.4929895   0.0000000), wk = 0.0021517
        k (  218) = (   0.2328771   0.8814055   0.0000000), wk = 0.0000000
        k (  219) = (   0.2328771   0.4929895   0.0681543), wk = 0.0021517
        k (  220) = (   0.2328771   0.8814055   0.0681543), wk = 0.0000000
        k (  221) = (   0.2328771   0.4929895   0.1363086), wk = 0.0021517
        k (  222) = (   0.2328771   0.8814055   0.1363086), wk = 0.0000000
        k (  223) = (   0.2328771   0.4929895   0.2044629), wk = 0.0021517
        k (  224) = (   0.2328771   0.8814055   0.2044629), wk = 0.0000000
        k (  225) = (   0.2328771   0.4929895   0.2726172), wk = 0.0021517
        k (  226) = (   0.2328771   0.8814055   0.2726172), wk = 0.0000000
        k (  227) = (   0.2328771   0.4929895   0.3407715), wk = 0.0021517
        k (  228) = (   0.2328771   0.8814055   0.3407715), wk = 0.0000000
        k (  229) = (   0.2328771   0.5826240   0.0000000), wk = 0.0021517
        k (  230) = (   0.2328771   0.9710399   0.0000000), wk = 0.0000000
        k (  231) = (   0.2328771   0.5826240   0.0681543), wk = 0.0021517
        k (  232) = (   0.2328771   0.9710399   0.0681543), wk = 0.0000000
        k (  233) = (   0.2328771   0.5826240   0.1363086), wk = 0.0021517
        k (  234) = (   0.2328771   0.9710399   0.1363086), wk = 0.0000000
        k (  235) = (   0.2328771   0.5826240   0.2044629), wk = 0.0021517
        k (  236) = (   0.2328771   0.9710399   0.2044629), wk = 0.0000000
        k (  237) = (   0.2328771   0.5826240   0.2726172), wk = 0.0021517
        k (  238) = (   0.2328771   0.9710399   0.2726172), wk = 0.0000000
        k (  239) = (   0.2328771   0.5826240   0.3407715), wk = 0.0021517
        k (  240) = (   0.2328771   0.9710399   0.3407715), wk = 0.0000000
        k (  241) = (   0.3105029   0.5378067   0.0000000), wk = 0.0021517
        k (  242) = (   0.3105029   0.9262227   0.0000000), wk = 0.0000000
        k (  243) = (   0.3105029   0.5378067   0.0681543), wk = 0.0021517
        k (  244) = (   0.3105029   0.9262227   0.0681543), wk = 0.0000000
        k (  245) = (   0.3105029   0.5378067   0.1363086), wk = 0.0021517
        k (  246) = (   0.3105029   0.9262227   0.1363086), wk = 0.0000000
        k (  247) = (   0.3105029   0.5378067   0.2044629), wk = 0.0021517
        k (  248) = (   0.3105029   0.9262227   0.2044629), wk = 0.0000000
        k (  249) = (   0.3105029   0.5378067   0.2726172), wk = 0.0021517
        k (  250) = (   0.3105029   0.9262227   0.2726172), wk = 0.0000000
        k (  251) = (   0.3105029   0.5378067   0.3407715), wk = 0.0021517
        k (  252) = (   0.3105029   0.9262227   0.3407715), wk = 0.0000000
        k (  253) = (   0.0000000   0.0000000  -0.0681543), wk = 0.0010758
        k (  254) = (   0.0000000   0.3884160  -0.0681543), wk = 0.0000000
        k (  255) = (   0.0000000   0.0000000  -0.1363086), wk = 0.0010758
        k (  256) = (   0.0000000   0.3884160  -0.1363086), wk = 0.0000000
        k (  257) = (   0.0000000   0.0000000  -0.2044629), wk = 0.0010758
        k (  258) = (   0.0000000   0.3884160  -0.2044629), wk = 0.0000000
        k (  259) = (   0.0000000   0.0000000  -0.2726172), wk = 0.0010758
        k (  260) = (   0.0000000   0.3884160  -0.2726172), wk = 0.0000000
        k (  261) = (   0.0000000   0.0000000  -0.3407715), wk = 0.0010758
        k (  262) = (   0.0000000   0.3884160  -0.3407715), wk = 0.0000000
        k (  263) = (  -0.0776257  -0.0448172   0.0000000), wk = 0.0021517
        k (  264) = (  -0.0776257   0.3435987   0.0000000), wk = 0.0000000
        k (  265) = (  -0.0776257   0.0448172   0.0000000), wk = 0.0021517
        k (  266) = (  -0.0776257   0.4332332   0.0000000), wk = 0.0000000
        k (  267) = (   0.0000000  -0.0896345   0.0000000), wk = 0.0010758
        k (  268) = (   0.0000000   0.2987815   0.0000000), wk = 0.0000000
        k (  269) = (  -0.0776257  -0.0448172   0.0681543), wk = 0.0021517
        k (  270) = (  -0.0776257   0.3435987   0.0681543), wk = 0.0000000
        k (  271) = (  -0.0776257   0.0448172  -0.0681543), wk = 0.0021517
        k (  272) = (  -0.0776257   0.4332332  -0.0681543), wk = 0.0000000
        k (  273) = (   0.0000000  -0.0896345  -0.0681543), wk = 0.0010758
        k (  274) = (   0.0000000   0.2987815  -0.0681543), wk = 0.0000000
        k (  275) = (   0.0000000   0.0896345  -0.0681543), wk = 0.0010758
        k (  276) = (   0.0000000   0.4780504  -0.0681543), wk = 0.0000000
        k (  277) = (   0.0000000  -0.0896345   0.0681543), wk = 0.0010758
        k (  278) = (   0.0000000   0.2987815   0.0681543), wk = 0.0000000
        k (  279) = (   0.0776257  -0.0448172  -0.0681543), wk = 0.0021517
        k (  280) = (   0.0776257   0.3435987  -0.0681543), wk = 0.0000000
        k (  281) = (   0.0776257   0.0448172   0.0681543), wk = 0.0021517
        k (  282) = (   0.0776257   0.4332332   0.0681543), wk = 0.0000000
        k (  283) = (  -0.0776257  -0.0448172   0.1363086), wk = 0.0021517
        k (  284) = (  -0.0776257   0.3435987   0.1363086), wk = 0.0000000
        k (  285) = (  -0.0776257   0.0448172  -0.1363086), wk = 0.0021517
        k (  286) = (  -0.0776257   0.4332332  -0.1363086), wk = 0.0000000
        k (  287) = (   0.0000000  -0.0896345  -0.1363086), wk = 0.0010758
        k (  288) = (   0.0000000   0.2987815  -0.1363086), wk = 0.0000000
        k (  289) = (   0.0000000   0.0896345  -0.1363086), wk = 0.0010758
        k (  290) = (   0.0000000   0.4780504  -0.1363086), wk = 0.0000000
        k (  291) = (   0.0000000  -0.0896345   0.1363086), wk = 0.0010758
        k (  292) = (   0.0000000   0.2987815   0.1363086), wk = 0.0000000
        k (  293) = (   0.0776257  -0.0448172  -0.1363086), wk = 0.0021517
        k (  294) = (   0.0776257   0.3435987  -0.1363086), wk = 0.0000000
        k (  295) = (   0.0776257   0.0448172   0.1363086), wk = 0.0021517
        k (  296) = (   0.0776257   0.4332332   0.1363086), wk = 0.0000000
        k (  297) = (  -0.0776257  -0.0448172   0.2044629), wk = 0.0021517
        k (  298) = (  -0.0776257   0.3435987   0.2044629), wk = 0.0000000
        k (  299) = (  -0.0776257   0.0448172  -0.2044629), wk = 0.0021517
        k (  300) = (  -0.0776257   0.4332332  -0.2044629), wk = 0.0000000
        k (  301) = (   0.0000000  -0.0896345  -0.2044629), wk = 0.0010758
        k (  302) = (   0.0000000   0.2987815  -0.2044629), wk = 0.0000000
        k (  303) = (   0.0000000   0.0896345  -0.2044629), wk = 0.0010758
        k (  304) = (   0.0000000   0.4780504  -0.2044629), wk = 0.0000000
        k (  305) = (   0.0000000  -0.0896345   0.2044629), wk = 0.0010758
        k (  306) = (   0.0000000   0.2987815   0.2044629), wk = 0.0000000
        k (  307) = (   0.0776257  -0.0448172  -0.2044629), wk = 0.0021517
        k (  308) = (   0.0776257   0.3435987  -0.2044629), wk = 0.0000000
        k (  309) = (   0.0776257   0.0448172   0.2044629), wk = 0.0021517
        k (  310) = (   0.0776257   0.4332332   0.2044629), wk = 0.0000000
        k (  311) = (  -0.0776257  -0.0448172   0.2726172), wk = 0.0021517
        k (  312) = (  -0.0776257   0.3435987   0.2726172), wk = 0.0000000
        k (  313) = (  -0.0776257   0.0448172  -0.2726172), wk = 0.0021517
        k (  314) = (  -0.0776257   0.4332332  -0.2726172), wk = 0.0000000
        k (  315) = (   0.0000000  -0.0896345  -0.2726172), wk = 0.0010758
        k (  316) = (   0.0000000   0.2987815  -0.2726172), wk = 0.0000000
        k (  317) = (   0.0000000   0.0896345  -0.2726172), wk = 0.0010758
        k (  318) = (   0.0000000   0.4780504  -0.2726172), wk = 0.0000000
        k (  319) = (   0.0000000  -0.0896345   0.2726172), wk = 0.0010758
        k (  320) = (   0.0000000   0.2987815   0.2726172), wk = 0.0000000
        k (  321) = (   0.0776257  -0.0448172  -0.2726172), wk = 0.0021517
        k (  322) = (   0.0776257   0.3435987  -0.2726172), wk = 0.0000000
        k (  323) = (   0.0776257   0.0448172   0.2726172), wk = 0.0021517
        k (  324) = (   0.0776257   0.4332332   0.2726172), wk = 0.0000000
        k (  325) = (  -0.0776257  -0.0448172   0.3407715), wk = 0.0021517
        k (  326) = (  -0.0776257   0.3435987   0.3407715), wk = 0.0000000
        k (  327) = (  -0.0776257   0.0448172  -0.3407715), wk = 0.0021517
        k (  328) = (  -0.0776257   0.4332332  -0.3407715), wk = 0.0000000
        k (  329) = (   0.0000000  -0.0896345  -0.3407715), wk = 0.0010758
        k (  330) = (   0.0000000   0.2987815  -0.3407715), wk = 0.0000000
        k (  331) = (   0.0000000   0.0896345  -0.3407715), wk = 0.0010758
        k (  332) = (   0.0000000   0.4780504  -0.3407715), wk = 0.0000000
        k (  333) = (   0.0000000  -0.0896345   0.3407715), wk = 0.0010758
        k (  334) = (   0.0000000   0.2987815   0.3407715), wk = 0.0000000
        k (  335) = (   0.0776257  -0.0448172  -0.3407715), wk = 0.0021517
        k (  336) = (   0.0776257   0.3435987  -0.3407715), wk = 0.0000000
        k (  337) = (   0.0776257   0.0448172   0.3407715), wk = 0.0021517
        k (  338) = (   0.0776257   0.4332332   0.3407715), wk = 0.0000000
        k (  339) = (  -0.1552514  -0.0896345   0.0000000), wk = 0.0021517
        k (  340) = (  -0.1552514   0.2987815   0.0000000), wk = 0.0000000
        k (  341) = (  -0.1552514   0.0896345   0.0000000), wk = 0.0021517
        k (  342) = (  -0.1552514   0.4780504   0.0000000), wk = 0.0000000
        k (  343) = (   0.0000000  -0.1792689   0.0000000), wk = 0.0010758
        k (  344) = (   0.0000000   0.2091471   0.0000000), wk = 0.0000000
        k (  345) = (  -0.1552514  -0.0896345   0.0681543), wk = 0.0021517
        k (  346) = (  -0.1552514   0.2987815   0.0681543), wk = 0.0000000
        k (  347) = (  -0.1552514   0.0896345  -0.0681543), wk = 0.0021517
        k (  348) = (  -0.1552514   0.4780504  -0.0681543), wk = 0.0000000
        k (  349) = (   0.0000000  -0.1792689  -0.0681543), wk = 0.0010758
        k (  350) = (   0.0000000   0.2091471  -0.0681543), wk = 0.0000000
        k (  351) = (   0.0000000   0.1792689  -0.0681543), wk = 0.0010758
        k (  352) = (   0.0000000   0.5676849  -0.0681543), wk = 0.0000000
        k (  353) = (   0.0000000  -0.1792689   0.0681543), wk = 0.0010758
        k (  354) = (   0.0000000   0.2091471   0.0681543), wk = 0.0000000
        k (  355) = (   0.1552514  -0.0896345  -0.0681543), wk = 0.0021517
        k (  356) = (   0.1552514   0.2987815  -0.0681543), wk = 0.0000000
        k (  357) = (   0.1552514   0.0896345   0.0681543), wk = 0.0021517
        k (  358) = (   0.1552514   0.4780504   0.0681543), wk = 0.0000000
        k (  359) = (  -0.1552514  -0.0896345   0.1363086), wk = 0.0021517
        k (  360) = (  -0.1552514   0.2987815   0.1363086), wk = 0.0000000
        k (  361) = (  -0.1552514   0.0896345  -0.1363086), wk = 0.0021517
        k (  362) = (  -0.1552514   0.4780504  -0.1363086), wk = 0.0000000
        k (  363) = (   0.0000000  -0.1792689  -0.1363086), wk = 0.0010758
        k (  364) = (   0.0000000   0.2091471  -0.1363086), wk = 0.0000000
        k (  365) = (   0.0000000   0.1792689  -0.1363086), wk = 0.0010758
        k (  366) = (   0.0000000   0.5676849  -0.1363086), wk = 0.0000000
        k (  367) = (   0.0000000  -0.1792689   0.1363086), wk = 0.0010758
        k (  368) = (   0.0000000   0.2091471   0.1363086), wk = 0.0000000
        k (  369) = (   0.1552514  -0.0896345  -0.1363086), wk = 0.0021517
        k (  370) = (   0.1552514   0.2987815  -0.1363086), wk = 0.0000000
        k (  371) = (   0.1552514   0.0896345   0.1363086), wk = 0.0021517
        k (  372) = (   0.1552514   0.4780504   0.1363086), wk = 0.0000000
        k (  373) = (  -0.1552514  -0.0896345   0.2044629), wk = 0.0021517
        k (  374) = (  -0.1552514   0.2987815   0.2044629), wk = 0.0000000
        k (  375) = (  -0.1552514   0.0896345  -0.2044629), wk = 0.0021517
        k (  376) = (  -0.1552514   0.4780504  -0.2044629), wk = 0.0000000
        k (  377) = (   0.0000000  -0.1792689  -0.2044629), wk = 0.0010758
        k (  378) = (   0.0000000   0.2091471  -0.2044629), wk = 0.0000000
        k (  379) = (   0.0000000   0.1792689  -0.2044629), wk = 0.0010758
        k (  380) = (   0.0000000   0.5676849  -0.2044629), wk = 0.0000000
        k (  381) = (   0.0000000  -0.1792689   0.2044629), wk = 0.0010758
        k (  382) = (   0.0000000   0.2091471   0.2044629), wk = 0.0000000
        k (  383) = (   0.1552514  -0.0896345  -0.2044629), wk = 0.0021517
        k (  384) = (   0.1552514   0.2987815  -0.2044629), wk = 0.0000000
        k (  385) = (   0.1552514   0.0896345   0.2044629), wk = 0.0021517
        k (  386) = (   0.1552514   0.4780504   0.2044629), wk = 0.0000000
        k (  387) = (  -0.1552514  -0.0896345   0.2726172), wk = 0.0021517
        k (  388) = (  -0.1552514   0.2987815   0.2726172), wk = 0.0000000
        k (  389) = (  -0.1552514   0.0896345  -0.2726172), wk = 0.0021517
        k (  390) = (  -0.1552514   0.4780504  -0.2726172), wk = 0.0000000
        k (  391) = (   0.0000000  -0.1792689  -0.2726172), wk = 0.0010758
        k (  392) = (   0.0000000   0.2091471  -0.2726172), wk = 0.0000000
        k (  393) = (   0.0000000   0.1792689  -0.2726172), wk = 0.0010758
        k (  394) = (   0.0000000   0.5676849  -0.2726172), wk = 0.0000000
        k (  395) = (   0.0000000  -0.1792689   0.2726172), wk = 0.0010758
[...]
        k (  492) = (   0.1794872   0.1025641  -0.2727273), wk = 0.0000000
        k (  493) = (  -0.1538462   0.3846154  -0.2727273), wk = 0.0064551
        k (  494) = (   0.1794872   0.7179487  -0.2727273), wk = 0.0000000
        k (  495) = (   0.1538462   0.2307692  -0.2727273), wk = 0.0064551
        k (  496) = (   0.4871795   0.5641026  -0.2727273), wk = 0.0000000
        k (  497) = (  -0.1538462  -0.2307692  -0.3636364), wk = 0.0064551
        k (  498) = (   0.1794872   0.1025641  -0.3636364), wk = 0.0000000
        k (  499) = (  -0.1538462   0.3846154  -0.3636364), wk = 0.0064551
        k (  500) = (   0.1794872   0.7179487  -0.3636364), wk = 0.0000000
        k (  501) = (   0.1538462   0.2307692  -0.3636364), wk = 0.0064551
        k (  502) = (   0.4871795   0.5641026  -0.3636364), wk = 0.0000000
        k (  503) = (  -0.1538462  -0.2307692  -0.4545455), wk = 0.0064551
        k (  504) = (   0.1794872   0.1025641  -0.4545455), wk = 0.0000000
        k (  505) = (  -0.1538462   0.3846154  -0.4545455), wk = 0.0064551
        k (  506) = (   0.1794872   0.7179487  -0.4545455), wk = 0.0000000
        k (  507) = (   0.1538462   0.2307692  -0.4545455), wk = 0.0064551
        k (  508) = (   0.4871795   0.5641026  -0.4545455), wk = 0.0000000
        k (  509) = (  -0.1538462  -0.3076923   0.0000000), wk = 0.0064551
        k (  510) = (   0.1794872   0.0256410   0.0000000), wk = 0.0000000
        k (  511) = (  -0.1538462  -0.3076923  -0.0909091), wk = 0.0064551
        k (  512) = (   0.1794872   0.0256410  -0.0909091), wk = 0.0000000
        k (  513) = (  -0.1538462   0.4615385  -0.0909091), wk = 0.0064551
        k (  514) = (   0.1794872   0.7948718  -0.0909091), wk = 0.0000000
        k (  515) = (   0.1538462   0.3076923  -0.0909091), wk = 0.0064551
        k (  516) = (   0.4871795   0.6410256  -0.0909091), wk = 0.0000000
        k (  517) = (  -0.1538462  -0.3076923  -0.1818182), wk = 0.0064551
        k (  518) = (   0.1794872   0.0256410  -0.1818182), wk = 0.0000000
        k (  519) = (  -0.1538462   0.4615385  -0.1818182), wk = 0.0064551
        k (  520) = (   0.1794872   0.7948718  -0.1818182), wk = 0.0000000
        k (  521) = (   0.1538462   0.3076923  -0.1818182), wk = 0.0064551
        k (  522) = (   0.4871795   0.6410256  -0.1818182), wk = 0.0000000
        k (  523) = (  -0.1538462  -0.3076923  -0.2727273), wk = 0.0064551
        k (  524) = (   0.1794872   0.0256410  -0.2727273), wk = 0.0000000
        k (  525) = (  -0.1538462   0.4615385  -0.2727273), wk = 0.0064551
        k (  526) = (   0.1794872   0.7948718  -0.2727273), wk = 0.0000000
        k (  527) = (   0.1538462   0.3076923  -0.2727273), wk = 0.0064551
        k (  528) = (   0.4871795   0.6410256  -0.2727273), wk = 0.0000000
        k (  529) = (  -0.1538462  -0.3076923  -0.3636364), wk = 0.0064551
        k (  530) = (   0.1794872   0.0256410  -0.3636364), wk = 0.0000000
        k (  531) = (  -0.1538462   0.4615385  -0.3636364), wk = 0.0064551
        k (  532) = (   0.1794872   0.7948718  -0.3636364), wk = 0.0000000
        k (  533) = (   0.1538462   0.3076923  -0.3636364), wk = 0.0064551
        k (  534) = (   0.4871795   0.6410256  -0.3636364), wk = 0.0000000
        k (  535) = (  -0.1538462  -0.3076923  -0.4545455), wk = 0.0064551
        k (  536) = (   0.1794872   0.0256410  -0.4545455), wk = 0.0000000
        k (  537) = (  -0.1538462   0.4615385  -0.4545455), wk = 0.0064551
        k (  538) = (   0.1794872   0.7948718  -0.4545455), wk = 0.0000000
        k (  539) = (   0.1538462   0.3076923  -0.4545455), wk = 0.0064551
        k (  540) = (   0.4871795   0.6410256  -0.4545455), wk = 0.0000000
        k (  541) = (  -0.1538462  -0.3846154   0.0000000), wk = 0.0064551
        k (  542) = (   0.1794872  -0.0512821   0.0000000), wk = 0.0000000
        k (  543) = (  -0.1538462  -0.3846154  -0.0909091), wk = 0.0064551
        k (  544) = (   0.1794872  -0.0512821  -0.0909091), wk = 0.0000000
        k (  545) = (  -0.1538462   0.5384615  -0.0909091), wk = 0.0064551
        k (  546) = (   0.1794872   0.8717949  -0.0909091), wk = 0.0000000
        k (  547) = (   0.1538462   0.3846154  -0.0909091), wk = 0.0064551
        k (  548) = (   0.4871795   0.7179487  -0.0909091), wk = 0.0000000
        k (  549) = (  -0.1538462  -0.3846154  -0.1818182), wk = 0.0064551
        k (  550) = (   0.1794872  -0.0512821  -0.1818182), wk = 0.0000000
        k (  551) = (  -0.1538462   0.5384615  -0.1818182), wk = 0.0064551
        k (  552) = (   0.1794872   0.8717949  -0.1818182), wk = 0.0000000
        k (  553) = (   0.1538462   0.3846154  -0.1818182), wk = 0.0064551
        k (  554) = (   0.4871795   0.7179487  -0.1818182), wk = 0.0000000
        k (  555) = (  -0.1538462  -0.3846154  -0.2727273), wk = 0.0064551
        k (  556) = (   0.1794872  -0.0512821  -0.2727273), wk = 0.0000000
        k (  557) = (  -0.1538462   0.5384615  -0.2727273), wk = 0.0064551
        k (  558) = (   0.1794872   0.8717949  -0.2727273), wk = 0.0000000
        k (  559) = (   0.1538462   0.3846154  -0.2727273), wk = 0.0064551
        k (  560) = (   0.4871795   0.7179487  -0.2727273), wk = 0.0000000
        k (  561) = (  -0.1538462  -0.3846154  -0.3636364), wk = 0.0064551
        k (  562) = (   0.1794872  -0.0512821  -0.3636364), wk = 0.0000000
        k (  563) = (  -0.1538462   0.5384615  -0.3636364), wk = 0.0064551
        k (  564) = (   0.1794872   0.8717949  -0.3636364), wk = 0.0000000
        k (  565) = (   0.1538462   0.3846154  -0.3636364), wk = 0.0064551
        k (  566) = (   0.4871795   0.7179487  -0.3636364), wk = 0.0000000
        k (  567) = (  -0.1538462  -0.3846154  -0.4545455), wk = 0.0064551
        k (  568) = (   0.1794872  -0.0512821  -0.4545455), wk = 0.0000000
        k (  569) = (  -0.1538462   0.5384615  -0.4545455), wk = 0.0064551
        k (  570) = (   0.1794872   0.8717949  -0.4545455), wk = 0.0000000
        k (  571) = (   0.1538462   0.3846154  -0.4545455), wk = 0.0064551
        k (  572) = (   0.4871795   0.7179487  -0.4545455), wk = 0.0000000
        k (  573) = (  -0.2307692  -0.2307692   0.0000000), wk = 0.0032275
        k (  574) = (   0.1025641   0.1025641   0.0000000), wk = 0.0000000
        k (  575) = (  -0.2307692  -0.2307692  -0.0909091), wk = 0.0064551
        k (  576) = (   0.1025641   0.1025641  -0.0909091), wk = 0.0000000
        k (  577) = (  -0.2307692  -0.2307692  -0.1818182), wk = 0.0064551
        k (  578) = (   0.1025641   0.1025641  -0.1818182), wk = 0.0000000
        k (  579) = (  -0.2307692  -0.2307692  -0.2727273), wk = 0.0064551
        k (  580) = (   0.1025641   0.1025641  -0.2727273), wk = 0.0000000
        k (  581) = (  -0.2307692  -0.2307692  -0.3636364), wk = 0.0064551
        k (  582) = (   0.1025641   0.1025641  -0.3636364), wk = 0.0000000
        k (  583) = (  -0.2307692  -0.2307692  -0.4545455), wk = 0.0064551
        k (  584) = (   0.1025641   0.1025641  -0.4545455), wk = 0.0000000
        k (  585) = (  -0.2307692  -0.3076923   0.0000000), wk = 0.0064551
        k (  586) = (   0.1025641   0.0256410   0.0000000), wk = 0.0000000
        k (  587) = (  -0.2307692  -0.3076923  -0.0909091), wk = 0.0064551
        k (  588) = (   0.1025641   0.0256410  -0.0909091), wk = 0.0000000
        k (  589) = (  -0.2307692   0.5384615  -0.0909091), wk = 0.0064551
        k (  590) = (   0.1025641   0.8717949  -0.0909091), wk = 0.0000000
        k (  591) = (   0.2307692   0.3076923  -0.0909091), wk = 0.0064551
        k (  592) = (   0.5641026   0.6410256  -0.0909091), wk = 0.0000000
        k (  593) = (  -0.2307692  -0.3076923  -0.1818182), wk = 0.0064551
        k (  594) = (   0.1025641   0.0256410  -0.1818182), wk = 0.0000000
        k (  595) = (  -0.2307692   0.5384615  -0.1818182), wk = 0.0064551
        k (  596) = (   0.1025641   0.8717949  -0.1818182), wk = 0.0000000
        k (  597) = (   0.2307692   0.3076923  -0.1818182), wk = 0.0064551
        k (  598) = (   0.5641026   0.6410256  -0.1818182), wk = 0.0000000
        k (  599) = (  -0.2307692  -0.3076923  -0.2727273), wk = 0.0064551
        k (  600) = (   0.1025641   0.0256410  -0.2727273), wk = 0.0000000
        k (  601) = (  -0.2307692   0.5384615  -0.2727273), wk = 0.0064551
        k (  602) = (   0.1025641   0.8717949  -0.2727273), wk = 0.0000000
        k (  603) = (   0.2307692   0.3076923  -0.2727273), wk = 0.0064551
        k (  604) = (   0.5641026   0.6410256  -0.2727273), wk = 0.0000000
        k (  605) = (  -0.2307692  -0.3076923  -0.3636364), wk = 0.0064551
        k (  606) = (   0.1025641   0.0256410  -0.3636364), wk = 0.0000000
        k (  607) = (  -0.2307692   0.5384615  -0.3636364), wk = 0.0064551
        k (  608) = (   0.1025641   0.8717949  -0.3636364), wk = 0.0000000
        k (  609) = (   0.2307692   0.3076923  -0.3636364), wk = 0.0064551
        k (  610) = (   0.5641026   0.6410256  -0.3636364), wk = 0.0000000
        k (  611) = (  -0.2307692  -0.3076923  -0.4545455), wk = 0.0064551
        k (  612) = (   0.1025641   0.0256410  -0.4545455), wk = 0.0000000
        k (  613) = (  -0.2307692   0.5384615  -0.4545455), wk = 0.0064551
        k (  614) = (   0.1025641   0.8717949  -0.4545455), wk = 0.0000000
        k (  615) = (   0.2307692   0.3076923  -0.4545455), wk = 0.0064551
        k (  616) = (   0.5641026   0.6410256  -0.4545455), wk = 0.0000000
        k (  617) = (  -0.2307692  -0.3846154   0.0000000), wk = 0.0032275
        k (  618) = (   0.1025641  -0.0512821   0.0000000), wk = 0.0000000
        k (  619) = (  -0.2307692  -0.3846154  -0.0909091), wk = 0.0064551
        k (  620) = (   0.1025641  -0.0512821  -0.0909091), wk = 0.0000000
        k (  621) = (  -0.2307692  -0.3846154  -0.1818182), wk = 0.0064551
        k (  622) = (   0.1025641  -0.0512821  -0.1818182), wk = 0.0000000
        k (  623) = (  -0.2307692  -0.3846154  -0.2727273), wk = 0.0064551
        k (  624) = (   0.1025641  -0.0512821  -0.2727273), wk = 0.0000000
        k (  625) = (  -0.2307692  -0.3846154  -0.3636364), wk = 0.0064551
        k (  626) = (   0.1025641  -0.0512821  -0.3636364), wk = 0.0000000
        k (  627) = (  -0.2307692  -0.3846154  -0.4545455), wk = 0.0064551
        k (  628) = (   0.1025641  -0.0512821  -0.4545455), wk = 0.0000000
        k (  629) = (  -0.3076923  -0.3076923   0.0000000), wk = 0.0032275
        k (  630) = (   0.0256410   0.0256410   0.0000000), wk = 0.0000000
        k (  631) = (  -0.3076923  -0.3076923  -0.0909091), wk = 0.0064551
        k (  632) = (   0.0256410   0.0256410  -0.0909091), wk = 0.0000000
        k (  633) = (  -0.3076923  -0.3076923  -0.1818182), wk = 0.0064551
        k (  634) = (   0.0256410   0.0256410  -0.1818182), wk = 0.0000000
        k (  635) = (  -0.3076923  -0.3076923  -0.2727273), wk = 0.0064551
        k (  636) = (   0.0256410   0.0256410  -0.2727273), wk = 0.0000000
        k (  637) = (  -0.3076923  -0.3076923  -0.3636364), wk = 0.0064551
        k (  638) = (   0.0256410   0.0256410  -0.3636364), wk = 0.0000000
        k (  639) = (  -0.3076923  -0.3076923  -0.4545455), wk = 0.0064551
        k (  640) = (   0.0256410   0.0256410  -0.4545455), wk = 0.0000000

     Atomic wfc used for the projector on the Hubbard manifold are orthogonalized

     Total time spent up to now is:
     HP           :      1h20m CPU      1h29m WALL

      =--------------------------------------------=
                 SOLVE THE LINEAR SYSTEM
      =--------------------------------------------=

      atom #  1   q point #   3   iter #   1
      chi:   1  -0.3691467183
      Average number of iter. to solve lin. system:   38.4
      Total CPU time :  5462.4 s

      atom #  1   q point #   3   iter #   2
      chi:   1   0.0924753388   residue:    0.4616220571
      Average number of iter. to solve lin. system:   14.4
      Total CPU time :  5526.2 s

      atom #  1   q point #   3   iter #   3
      chi:   1  -0.1374233295   residue:    0.2298986682
      Average number of iter. to solve lin. system:   13.3
      Total CPU time :  5574.0 s

      atom #  1   q point #   3   iter #   4
      chi:   1  -0.1403403508   residue:    0.0029170213
      Average number of iter. to solve lin. system:   14.6
      Total CPU time :  5616.0 s

      atom #  1   q point #   3   iter #   5
      chi:   1  -0.1399428943   residue:    0.0003974564
      Average number of iter. to solve lin. system:   14.8
      Total CPU time :  5658.6 s

      atom #  1   q point #   3   iter #   6
      chi:   1  -0.1393547828   residue:    0.0005881115
      Average number of iter. to solve lin. system:   16.0
      Total CPU time :  5703.9 s

      atom #  1   q point #   3   iter #   7
      chi:   1  -0.1394500817   residue:    0.0000952989
      Average number of iter. to solve lin. system:   15.1
      Total CPU time :  5750.5 s

      atom #  1   q point #   3   iter #   8
      chi:   1  -0.1394493792   residue:    0.0000007025
      Average number of iter. to solve lin. system:   14.6
      Total CPU time :  5794.2 s

      atom #  1   q point #   3   iter #   9
      chi:   1  -0.1394506004   residue:    0.0000012212
      Average number of iter. to solve lin. system:   15.8
      Total CPU time :  5839.3 s

      atom #  1   q point #   3   iter #  10
      chi:   1  -0.1394513439   residue:    0.0000007435
      Average number of iter. to solve lin. system:   15.7
      Total CPU time :  5886.5 s

      atom #  1   q point #   3   iter #  11
      chi:   1  -0.1394518941   residue:    0.0000005502
      Average number of iter. to solve lin. system:   16.1
      Total CPU time :  5931.0 s

      atom #  1   q point #   3   iter #  12
      chi:   1  -0.1394518721   residue:    0.0000000220
      Average number of iter. to solve lin. system:   15.0
      Total CPU time :  5976.0 s
      
      =--------------------------------------------=
             CONVERGENCE HAS BEEN REACHED
      =--------------------------------------------=

     Computing the sum over q of the response occupation matrices...

     q #   1 =  0.000000000   0.000000000   0.000000000
 
     Number of q in the star =    1
     List of q in the star:
          1   0.000000000   0.000000000   0.000000000

     q #   2 =  0.000000000   0.388415970   0.000000000
 
     Number of q in the star =    6
     List of q in the star:
          1   0.000000000   0.388415970   0.000000000
          2   0.336378097  -0.194207985   0.000000000
          3  -0.336378097   0.194207985   0.000000000
          4   0.336378097   0.194207985   0.000000000
          5   0.000000000  -0.388415970   0.000000000
          6  -0.336378097  -0.194207985   0.000000000

     q #   3 =  0.336378097   0.582623955   0.000000000
 
     Number of q in the star =    2
     List of q in the star:
          1   0.336378097   0.582623955   0.000000000
          2  -0.336378097  -0.582623955   0.000000000

     Post-processing calculation of Hubbard parameters ...

 
     PRINTING TIMING FROM PWSCF ROUTINES: 
 
     init_run     :     57.69s CPU     60.60s WALL (       2 calls)
     electrons    :    499.28s CPU    513.31s WALL (       2 calls)

     Called by init_run:
     wfcinit      :     57.04s CPU     59.59s WALL (       2 calls)
     wfcinit:atom :      0.16s CPU      0.19s WALL (    2642 calls)
     wfcinit:wfcr :     23.52s CPU     24.13s WALL (    2642 calls)
     potinit      :      0.01s CPU      0.12s WALL (       2 calls)
     hinit0       :      0.55s CPU      0.56s WALL (       2 calls)

     Called by electrons:
     c_bands      :    499.19s CPU    513.22s WALL (       2 calls)
     v_of_rho     :      0.01s CPU      0.01s WALL (       3 calls)
     v_h          :      0.00s CPU      0.00s WALL (       3 calls)
     v_xc         :      0.01s CPU      0.01s WALL (       3 calls)

     Called by c_bands:
     init_us_2    :      2.55s CPU      2.81s WALL (   24685 calls)
     init_us_2:cp :      2.52s CPU      2.78s WALL (   24685 calls)
     cegterg      :    382.93s CPU    390.21s WALL (    2721 calls)

     Called by sum_band:

     Called by *egterg:
     cdiaghg      :    188.22s CPU    191.81s WALL (   50378 calls)
     cegterg:over :     27.62s CPU     28.14s WALL (   47736 calls)
     cegterg:upda :     15.16s CPU     15.51s WALL (   47736 calls)
     cegterg:last :      5.96s CPU      6.27s WALL (    8023 calls)
     cdiaghg:chol :      9.58s CPU      9.72s WALL (   50378 calls)
     cdiaghg:inve :      7.88s CPU      7.97s WALL (   50378 calls)
     cdiaghg:para :     15.14s CPU     15.91s WALL (  100756 calls)
     h_psi        :   3126.95s CPU   3177.80s WALL (  648107 calls)
     g_psi        :      0.67s CPU      0.69s WALL (   47736 calls)

     Called by h_psi:
     h_psi:calbec :     97.14s CPU     99.58s WALL (  648107 calls)
     vloc_psi     :   2925.28s CPU   2971.11s WALL (  648107 calls)
     add_vuspsi   :     68.14s CPU     69.94s WALL (  648107 calls)
     vhpsi        :     30.88s CPU     31.66s WALL (  648107 calls)

     General routines
     calbec       :    259.47s CPU    265.54s WALL ( 1894060 calls)
     fft          :      0.14s CPU      0.58s WALL (     473 calls)
     ffts         :      0.55s CPU      0.55s WALL (    4931 calls)
     fftw         :   3613.69s CPU   3665.47s WALL (20040174 calls)
     davcio       :     24.68s CPU    445.05s WALL (  783393 calls)
 
     Parallel routines

     Hubbard U routines
     vhpsi        :     30.88s CPU     31.66s WALL (  648107 calls)
 
     init_vloc    :      0.03s CPU      0.03s WALL (       3 calls)
     init_us_1    :      0.51s CPU      0.51s WALL (       3 calls)
     add_vuspsi   :     68.14s CPU     69.94s WALL (  648107 calls)
 
     PRINTING TIMING FROM HP ROUTINES: 
 
     hp_setup_q   :      0.02s CPU      0.02s WALL (       3 calls)
     hp_init_q    :     17.18s CPU     26.90s WALL (       3 calls)
     hp_solve_lin :   4749.51s CPU   5217.11s WALL (       3 calls)
     hp_dvpsi_per :     23.68s CPU     25.13s WALL (    1517 calls)
     hp_dnsq      :    325.48s CPU    352.95s WALL (      37 calls)
     hp_symdnsq   :      0.00s CPU      0.00s WALL (      37 calls)
     hp_dnstot_su :      0.00s CPU      0.07s WALL (       1 calls)
     hp_rotate_dn :      0.00s CPU      0.00s WALL (      12 calls)
     hp_calc_chi  :      0.00s CPU      0.00s WALL (       1 calls)
     hp_postproc  :      0.00s CPU      0.01s WALL (       1 calls)
     ef_shift     :      0.00s CPU      0.00s WALL (      12 calls)
     hp_run_nscf  :    602.59s CPU    712.69s WALL (       2 calls)
     hp_postproc  :      0.00s CPU      0.01s WALL (       1 calls)
     hp_psymdvscf :      0.67s CPU      0.72s WALL (      37 calls)
 
     PRINTING TIMING FROM LR MODULE: 
 
     sth_kernel   :   4397.53s CPU   4834.36s WALL (      37 calls)
     apply_dpot_b :    293.68s CPU    297.51s WALL (   17688 calls)
     ortho        :     30.53s CPU     30.76s WALL (   19205 calls)
     cgsolve      :   3181.05s CPU   3300.17s WALL (   19205 calls)
     ch_psi       :   3146.85s CPU   3264.71s WALL (  595008 calls)
     incdrhoscf   :    475.27s CPU    479.56s WALL (   19205 calls)
     localdos     :      0.68s CPU      0.92s WALL (       1 calls)
     dv_of_drho   :      0.13s CPU      0.13s WALL (      37 calls)
     mix_pot      :      1.29s CPU      2.07s WALL (      37 calls)
     setup_dgc    :      0.01s CPU      0.02s WALL (       3 calls)
     setup_dmuxc  :      0.00s CPU      0.00s WALL (       3 calls)
     setup_nbnd_o :      0.00s CPU      0.00s WALL (       3 calls)
     lr_orthoUwfc :     17.18s CPU     22.03s WALL (       3 calls)
     cft_wave     :    290.29s CPU    293.94s WALL (  890532 calls)
 
     HP           :      1h29m CPU      1h39m WALL

 
   This run was terminated on:  20:42: 4   5Sep2022            

=------------------------------------------------------------------------------=
   JOB DONE.
=------------------------------------------------------------------------------=
