
     Program HP v.7.1 starts on  5Sep2022 at 18:12:40 

     This program is part of the open-source Quantum ESPRESSO suite
     for quantum simulation of materials; please cite
         "P. Giannozzi et al., J. Phys.:Condens. Matter 21 395502 (2009);
         "P. Giannozzi et al., J. Phys.:Condens. Matter 29 465901 (2017);
         "P. Giannozzi et al., J. Chem. Phys. 152 154105 (2020);
          URL http://www.quantum-espresso.org", 
     in publications or presentations arising from this work. More details at
     http://www.quantum-espresso.org/quote

     Parallel version (MPI), running on    24 processors

     MPI processes distributed on     1 nodes
     R & G space division:  proc/nbgrp/npool/nimage =      24
     491772 MiB available memory on the printing compute node when the environment starts
 

     =--------------------------------------------------------------------------=

       Calculation of Hubbard parameters from DFPT; please cite this program as

       I. Timrov, N. Marzari, and M. Cococcioni, Phys. Rev. B 98,  085127 (2018)

       I. Timrov, N. Marzari, and M. Cococcioni, Phys. Rev. B 103, 045141 (2021)

     =--------------------------------------------------------------------------=

     Reading xml data from directory:

     .//lscratch.bUPtSe2/bUPtSe2.save/

     IMPORTANT: XC functional enforced from input :
     Exchange-correlation= PBE
                           (   1   4   3   4   0   0   0)
     Any further DFT definition will be discarded
     Please, verify this is what you really want

 
     Parallelization info
     --------------------
     sticks:   dense  smooth     PW     G-vecs:    dense   smooth      PW
     Min          62      62     17                 2648     2648     387
     Max          63      63     18                 2655     2655     394
     Sum        1507    1507    421                63657    63657    9393
 
     Using Slab Decomposition
 
     Reading collected, re-writing distributed wavefunctions
 

     bravais-lattice index     =             0
     lattice parameter (alat)  =        7.1073 (a.u.)
     unit-cell volume          =      407.2428 (a.u.)^3
     number of atoms/cell      =             3
     number of atomic types    =             2
     kinetic-energy cut-off    =        110.00 (Ry)
     charge density cut-off    =        440.00 (Ry)
     conv. thresh. for NSCF    =       1.0E-11
     conv. thresh. for chi     =       1.0E-07
     Input Hubbard parameters (in eV):
       U ( 1)                     =   1.00000E-04

     celldm(1) =  7.10726  celldm(2) =  0.00000  celldm(3) =  0.00000
     celldm(4) =  0.00000  celldm(5) =  0.00000  celldm(6) =  0.00000

     crystal axes: (cart. coord. in units of alat)
               a(1) = (  0.9909  0.0000  0.0000 )  
               a(2) = ( -0.4955  0.8582  0.0000 )  
               a(3) = (  0.0000  0.0000  1.3339 )  

     reciprocal axes: (cart. coord. in units 2 pi/alat)
               b(1) = (  1.0091  0.5826  0.0000 )  
               b(2) = (  0.0000  1.1652  0.0000 )  
               b(3) = (  0.0000  0.0000  0.7497 )  

     Atoms inside the unit cell (Cartesian axes):
     site n.  atom      mass           positions (alat units)
        1      Pt    195.0840   tau(  1) = (  0.00000  0.00000  0.00000  )
        2      Se     78.9600   tau(  2) = (  0.49547  0.28606  0.97910  )
        3      Se     78.9600   tau(  3) = ( -0.00000  0.57212  0.35477  )

     Atom which will be perturbed:

        1      Pt    195.0840   tau( 1) = (  0.00000  0.00000  0.00000  )
 
     =====================================================================

                          PERTURBED ATOM #    1

     site n.  atom      mass           positions (alat units)
        1      Pt    195.0840   tau( 1) = (  0.00000  0.00000  0.00000  )
 
     =====================================================================

     The perturbed atom has a type which is unique!


     The grid of q-points ( 2, 2, 1)  (  2 q-points ) :
       N       xq(1)         xq(2)         xq(3)       wq
       1   0.000000000   0.000000000   0.000000000   0.250000000
       2   0.000000000  -0.582623955   0.000000000   0.750000000


     =-------------------------------------------------------------=

     Calculation for q #   1 = (   0.0000000   0.0000000   0.0000000 )

     =-------------------------------------------------------------=

                   WRITING LINEAR-RESPONSE SUMMARY:


     Number of symmetries in the small group of q, nsymq = 12
      + the symmetry q -> -q+G 

     Symmetry matrices (and vectors of fractional translations if f/=0):

     isym =  1     identity                                     

     cryst.   s( 1) = (     1          0          0      )
                      (     0          1          0      )
                      (     0          0          1      )

     cart.    s( 1) = (  1.0000000  0.0000000  0.0000000 )
                      (  0.0000000  1.0000000  0.0000000 )
                      (  0.0000000  0.0000000  1.0000000 )


     isym =  2     180 deg rotation - cart. axis [1,0,0]        

     cryst.   s( 2) = (     1          0          0      )
                      (    -1         -1          0      )
                      (     0          0         -1      )

     cart.    s( 2) = (  1.0000000  0.0000000  0.0000000 )
                      (  0.0000000 -1.0000000  0.0000000 )
                      (  0.0000000  0.0000000 -1.0000000 )


     isym =  3     120 deg rotation - cryst. axis [0,0,1]       

     cryst.   s( 3) = (     0          1          0      )
                      (    -1         -1          0      )
                      (     0          0          1      )

     cart.    s( 3) = ( -0.5000000 -0.8660254  0.0000000 )
                      (  0.8660254 -0.5000000  0.0000000 )
                      (  0.0000000  0.0000000  1.0000000 )


     isym =  4     120 deg rotation - cryst. axis [0,0,-1]      

     cryst.   s( 4) = (    -1         -1          0      )
                      (     1          0          0      )
                      (     0          0          1      )

     cart.    s( 4) = ( -0.5000000  0.8660254  0.0000000 )
                      ( -0.8660254 -0.5000000  0.0000000 )
                      (  0.0000000  0.0000000  1.0000000 )


     isym =  5     180 deg rotation - cryst. axis [0,1,0]       

     cryst.   s( 5) = (    -1         -1          0      )
                      (     0          1          0      )
                      (     0          0         -1      )

     cart.    s( 5) = ( -0.5000000 -0.8660254  0.0000000 )
                      ( -0.8660254  0.5000000  0.0000000 )
                      (  0.0000000  0.0000000 -1.0000000 )


     isym =  6     180 deg rotation - cryst. axis [1,1,0]       

     cryst.   s( 6) = (     0          1          0      )
                      (     1          0          0      )
                      (     0          0         -1      )

     cart.    s( 6) = ( -0.5000000  0.8660254  0.0000000 )
                      (  0.8660254  0.5000000  0.0000000 )
                      (  0.0000000  0.0000000 -1.0000000 )


     isym =  7     inversion                                    

     cryst.   s( 7) = (    -1          0          0      )
                      (     0         -1          0      )
                      (     0          0         -1      )

     cart.    s( 7) = ( -1.0000000  0.0000000  0.0000000 )
                      (  0.0000000 -1.0000000  0.0000000 )
                      (  0.0000000  0.0000000 -1.0000000 )


     isym =  8     inv. 180 deg rotation - cart. axis [1,0,0]   

     cryst.   s( 8) = (    -1          0          0      )
                      (     1          1          0      )
                      (     0          0          1      )

     cart.    s( 8) = ( -1.0000000 -0.0000000  0.0000000 )
                      (  0.0000000  1.0000000  0.0000000 )
                      (  0.0000000  0.0000000  1.0000000 )


     isym =  9     inv. 120 deg rotation - cryst. axis [0,0,1]  

     cryst.   s( 9) = (     0         -1          0      )
                      (     1          1          0      )
                      (     0          0         -1      )

     cart.    s( 9) = (  0.5000000  0.8660254  0.0000000 )
                      ( -0.8660254  0.5000000  0.0000000 )
                      (  0.0000000  0.0000000 -1.0000000 )


     isym = 10     inv. 120 deg rotation - cryst. axis [0,0,-1] 

     cryst.   s(10) = (     1          1          0      )
                      (    -1          0          0      )
                      (     0          0         -1      )

     cart.    s(10) = (  0.5000000 -0.8660254  0.0000000 )
                      (  0.8660254  0.5000000  0.0000000 )
                      (  0.0000000  0.0000000 -1.0000000 )


     isym = 11     inv. 180 deg rotation - cryst. axis [0,1,0]  

     cryst.   s(11) = (     1          1          0      )
                      (     0         -1          0      )
                      (     0          0          1      )

     cart.    s(11) = (  0.5000000  0.8660254  0.0000000 )
                      (  0.8660254 -0.5000000  0.0000000 )
                      (  0.0000000  0.0000000  1.0000000 )


     isym = 12     inv. 180 deg rotation - cryst. axis [1,1,0]  

     cryst.   s(12) = (     0         -1          0      )
                      (    -1          0          0      )
                      (     0          0          1      )

     cart.    s(12) = (  0.5000000 -0.8660254  0.0000000 )
                      ( -0.8660254 -0.5000000  0.0000000 )
                      (  0.0000000  0.0000000  1.0000000 )


     This transformation sends q -> -q+G

     isym = 13     identity                                     

     cryst.   s(13) = (     1          0          0      )
                      (     0          1          0      )
                      (     0          0          1      )

     cart.    s(13) = (  1.0000000  0.0000000  0.0000000 )
                      (  0.0000000  1.0000000  0.0000000 )
                      (  0.0000000  0.0000000  1.0000000 )


     G cutoff =  562.9857  (   2650 G-vectors)     FFT grid: ( 48, 48, 64)

     Number of k (and k+q if q/=0) points =   196  Methfessel-Paxton smearing, width (Ry) =  0.0080

                       cart. coord. (in units 2pi/alat)
        k (    1) = (   0.0000000   0.0000000   0.0000000), wk = 0.0010758
        k (    2) = (   0.0000000   0.0000000   0.0681543), wk = 0.0021517
        k (    3) = (   0.0000000   0.0000000   0.1363086), wk = 0.0021517
        k (    4) = (   0.0000000   0.0000000   0.2044629), wk = 0.0021517
        k (    5) = (   0.0000000   0.0000000   0.2726172), wk = 0.0021517
        k (    6) = (   0.0000000   0.0000000   0.3407715), wk = 0.0021517
        k (    7) = (   0.0000000   0.0896345   0.0000000), wk = 0.0064551
        k (    8) = (   0.0000000   0.0896345   0.0681543), wk = 0.0064551
        k (    9) = (   0.0000000   0.0896345   0.1363086), wk = 0.0064551
        k (   10) = (   0.0000000   0.0896345   0.2044629), wk = 0.0064551
        k (   11) = (   0.0000000   0.0896345   0.2726172), wk = 0.0064551
        k (   12) = (   0.0000000   0.0896345   0.3407715), wk = 0.0064551
        k (   13) = (   0.0000000   0.1792689   0.0000000), wk = 0.0064551
        k (   14) = (   0.0000000   0.1792689   0.0681543), wk = 0.0064551
        k (   15) = (   0.0000000   0.1792689   0.1363086), wk = 0.0064551
        k (   16) = (   0.0000000   0.1792689   0.2044629), wk = 0.0064551
        k (   17) = (   0.0000000   0.1792689   0.2726172), wk = 0.0064551
        k (   18) = (   0.0000000   0.1792689   0.3407715), wk = 0.0064551
        k (   19) = (   0.0000000   0.2689034   0.0000000), wk = 0.0064551
        k (   20) = (   0.0000000   0.2689034   0.0681543), wk = 0.0064551
        k (   21) = (   0.0000000   0.2689034   0.1363086), wk = 0.0064551
        k (   22) = (   0.0000000   0.2689034   0.2044629), wk = 0.0064551
        k (   23) = (   0.0000000   0.2689034   0.2726172), wk = 0.0064551
        k (   24) = (   0.0000000   0.2689034   0.3407715), wk = 0.0064551
        k (   25) = (   0.0000000   0.3585378   0.0000000), wk = 0.0064551
        k (   26) = (   0.0000000   0.3585378   0.0681543), wk = 0.0064551
        k (   27) = (   0.0000000   0.3585378   0.1363086), wk = 0.0064551
        k (   28) = (   0.0000000   0.3585378   0.2044629), wk = 0.0064551
        k (   29) = (   0.0000000   0.3585378   0.2726172), wk = 0.0064551
        k (   30) = (   0.0000000   0.3585378   0.3407715), wk = 0.0064551
        k (   31) = (   0.0000000   0.4481723   0.0000000), wk = 0.0064551
        k (   32) = (   0.0000000   0.4481723   0.0681543), wk = 0.0064551
        k (   33) = (   0.0000000   0.4481723   0.1363086), wk = 0.0064551
        k (   34) = (   0.0000000   0.4481723   0.2044629), wk = 0.0064551
        k (   35) = (   0.0000000   0.4481723   0.2726172), wk = 0.0064551
        k (   36) = (   0.0000000   0.4481723   0.3407715), wk = 0.0064551
        k (   37) = (   0.0000000   0.5378067   0.0000000), wk = 0.0064551
        k (   38) = (   0.0000000   0.5378067   0.0681543), wk = 0.0064551
        k (   39) = (   0.0000000   0.5378067   0.1363086), wk = 0.0064551
        k (   40) = (   0.0000000   0.5378067   0.2044629), wk = 0.0064551
        k (   41) = (   0.0000000   0.5378067   0.2726172), wk = 0.0064551
        k (   42) = (   0.0000000   0.5378067   0.3407715), wk = 0.0064551
        k (   43) = (   0.0776257   0.1344517   0.0000000), wk = 0.0064551
        k (   44) = (   0.0776257   0.1344517   0.0681543), wk = 0.0129102
        k (   45) = (   0.0776257   0.1344517   0.1363086), wk = 0.0129102
        k (   46) = (   0.0776257   0.1344517   0.2044629), wk = 0.0129102
        k (   47) = (   0.0776257   0.1344517   0.2726172), wk = 0.0129102
        k (   48) = (   0.0776257   0.1344517   0.3407715), wk = 0.0129102
        k (   49) = (   0.0776257   0.2240861   0.0000000), wk = 0.0129102
        k (   50) = (   0.0776257   0.2240861   0.0681543), wk = 0.0129102
        k (   51) = (   0.0776257   0.2240861   0.1363086), wk = 0.0129102
        k (   52) = (   0.0776257   0.2240861   0.2044629), wk = 0.0129102
        k (   53) = (   0.0776257   0.2240861   0.2726172), wk = 0.0129102
        k (   54) = (   0.0776257   0.2240861   0.3407715), wk = 0.0129102
        k (   55) = (   0.0776257   0.3137206   0.0000000), wk = 0.0129102
        k (   56) = (   0.0776257   0.3137206   0.0681543), wk = 0.0129102
        k (   57) = (   0.0776257   0.3137206   0.1363086), wk = 0.0129102
        k (   58) = (   0.0776257   0.3137206   0.2044629), wk = 0.0129102
        k (   59) = (   0.0776257   0.3137206   0.2726172), wk = 0.0129102
        k (   60) = (   0.0776257   0.3137206   0.3407715), wk = 0.0129102
        k (   61) = (   0.0776257   0.4033550   0.0000000), wk = 0.0129102
        k (   62) = (   0.0776257   0.4033550   0.0681543), wk = 0.0129102
        k (   63) = (   0.0776257   0.4033550   0.1363086), wk = 0.0129102
        k (   64) = (   0.0776257   0.4033550   0.2044629), wk = 0.0129102
        k (   65) = (   0.0776257   0.4033550   0.2726172), wk = 0.0129102
        k (   66) = (   0.0776257   0.4033550   0.3407715), wk = 0.0129102
        k (   67) = (   0.0776257   0.4929895   0.0000000), wk = 0.0129102
        k (   68) = (   0.0776257   0.4929895   0.0681543), wk = 0.0129102
        k (   69) = (   0.0776257   0.4929895   0.1363086), wk = 0.0129102
        k (   70) = (   0.0776257   0.4929895   0.2044629), wk = 0.0129102
        k (   71) = (   0.0776257   0.4929895   0.2726172), wk = 0.0129102
        k (   72) = (   0.0776257   0.4929895   0.3407715), wk = 0.0129102
        k (   73) = (   0.0776257   0.5826240   0.0000000), wk = 0.0064551
        k (   74) = (   0.0776257   0.5826240   0.0681543), wk = 0.0129102
        k (   75) = (   0.0776257   0.5826240   0.1363086), wk = 0.0129102
        k (   76) = (   0.0776257   0.5826240   0.2044629), wk = 0.0129102
        k (   77) = (   0.0776257   0.5826240   0.2726172), wk = 0.0129102
        k (   78) = (   0.0776257   0.5826240   0.3407715), wk = 0.0129102
        k (   79) = (   0.1552514   0.2689034   0.0000000), wk = 0.0064551
        k (   80) = (   0.1552514   0.2689034   0.0681543), wk = 0.0129102
        k (   81) = (   0.1552514   0.2689034   0.1363086), wk = 0.0129102
        k (   82) = (   0.1552514   0.2689034   0.2044629), wk = 0.0129102
        k (   83) = (   0.1552514   0.2689034   0.2726172), wk = 0.0129102
        k (   84) = (   0.1552514   0.2689034   0.3407715), wk = 0.0129102
        k (   85) = (   0.1552514   0.3585378   0.0000000), wk = 0.0129102
        k (   86) = (   0.1552514   0.3585378   0.0681543), wk = 0.0129102
        k (   87) = (   0.1552514   0.3585378   0.1363086), wk = 0.0129102
        k (   88) = (   0.1552514   0.3585378   0.2044629), wk = 0.0129102
        k (   89) = (   0.1552514   0.3585378   0.2726172), wk = 0.0129102
        k (   90) = (   0.1552514   0.3585378   0.3407715), wk = 0.0129102
        k (   91) = (   0.1552514   0.4481723   0.0000000), wk = 0.0129102
        k (   92) = (   0.1552514   0.4481723   0.0681543), wk = 0.0129102
        k (   93) = (   0.1552514   0.4481723   0.1363086), wk = 0.0129102
        k (   94) = (   0.1552514   0.4481723   0.2044629), wk = 0.0129102
        k (   95) = (   0.1552514   0.4481723   0.2726172), wk = 0.0129102
        k (   96) = (   0.1552514   0.4481723   0.3407715), wk = 0.0129102
        k (   97) = (   0.1552514   0.5378067   0.0000000), wk = 0.0129102
        k (   98) = (   0.1552514   0.5378067   0.0681543), wk = 0.0129102
        k (   99) = (   0.1552514   0.5378067   0.1363086), wk = 0.0129102
        k (  100) = (   0.1552514   0.5378067   0.2044629), wk = 0.0129102
        k (  101) = (   0.1552514   0.5378067   0.2726172), wk = 0.0129102
        k (  102) = (   0.1552514   0.5378067   0.3407715), wk = 0.0129102
        k (  103) = (   0.2328771   0.4033550   0.0000000), wk = 0.0064551
        k (  104) = (   0.2328771   0.4033550   0.0681543), wk = 0.0129102
        k (  105) = (   0.2328771   0.4033550   0.1363086), wk = 0.0129102
        k (  106) = (   0.2328771   0.4033550   0.2044629), wk = 0.0129102
        k (  107) = (   0.2328771   0.4033550   0.2726172), wk = 0.0129102
        k (  108) = (   0.2328771   0.4033550   0.3407715), wk = 0.0129102
        k (  109) = (   0.2328771   0.4929895   0.0000000), wk = 0.0129102
        k (  110) = (   0.2328771   0.4929895   0.0681543), wk = 0.0129102
        k (  111) = (   0.2328771   0.4929895   0.1363086), wk = 0.0129102
        k (  112) = (   0.2328771   0.4929895   0.2044629), wk = 0.0129102
        k (  113) = (   0.2328771   0.4929895   0.2726172), wk = 0.0129102
        k (  114) = (   0.2328771   0.4929895   0.3407715), wk = 0.0129102
        k (  115) = (   0.2328771   0.5826240   0.0000000), wk = 0.0064551
        k (  116) = (   0.2328771   0.5826240   0.0681543), wk = 0.0129102
        k (  117) = (   0.2328771   0.5826240   0.1363086), wk = 0.0129102
        k (  118) = (   0.2328771   0.5826240   0.2044629), wk = 0.0129102
        k (  119) = (   0.2328771   0.5826240   0.2726172), wk = 0.0129102
        k (  120) = (   0.2328771   0.5826240   0.3407715), wk = 0.0129102
        k (  121) = (   0.3105029   0.5378067   0.0000000), wk = 0.0064551
        k (  122) = (   0.3105029   0.5378067   0.0681543), wk = 0.0129102
        k (  123) = (   0.3105029   0.5378067   0.1363086), wk = 0.0129102
        k (  124) = (   0.3105029   0.5378067   0.2044629), wk = 0.0129102
        k (  125) = (   0.3105029   0.5378067   0.2726172), wk = 0.0129102
        k (  126) = (   0.3105029   0.5378067   0.3407715), wk = 0.0129102
        k (  127) = (   0.0000000   0.0896345  -0.0681543), wk = 0.0064551
        k (  128) = (   0.0000000   0.0896345  -0.1363086), wk = 0.0064551
        k (  129) = (   0.0000000   0.0896345  -0.2044629), wk = 0.0064551
        k (  130) = (   0.0000000   0.0896345  -0.2726172), wk = 0.0064551
        k (  131) = (   0.0000000   0.0896345  -0.3407715), wk = 0.0064551
        k (  132) = (   0.0000000   0.1792689  -0.0681543), wk = 0.0064551
        k (  133) = (   0.0000000   0.1792689  -0.1363086), wk = 0.0064551
        k (  134) = (   0.0000000   0.1792689  -0.2044629), wk = 0.0064551
        k (  135) = (   0.0000000   0.1792689  -0.2726172), wk = 0.0064551
        k (  136) = (   0.0000000   0.1792689  -0.3407715), wk = 0.0064551
        k (  137) = (   0.0000000   0.2689034  -0.0681543), wk = 0.0064551
        k (  138) = (   0.0000000   0.2689034  -0.1363086), wk = 0.0064551
        k (  139) = (   0.0000000   0.2689034  -0.2044629), wk = 0.0064551
        k (  140) = (   0.0000000   0.2689034  -0.2726172), wk = 0.0064551
        k (  141) = (   0.0000000   0.2689034  -0.3407715), wk = 0.0064551
        k (  142) = (   0.0000000   0.3585378  -0.0681543), wk = 0.0064551
        k (  143) = (   0.0000000   0.3585378  -0.1363086), wk = 0.0064551
        k (  144) = (   0.0000000   0.3585378  -0.2044629), wk = 0.0064551
        k (  145) = (   0.0000000   0.3585378  -0.2726172), wk = 0.0064551
        k (  146) = (   0.0000000   0.3585378  -0.3407715), wk = 0.0064551
        k (  147) = (   0.0000000   0.4481723  -0.0681543), wk = 0.0064551
        k (  148) = (   0.0000000   0.4481723  -0.1363086), wk = 0.0064551
        k (  149) = (   0.0000000   0.4481723  -0.2044629), wk = 0.0064551
        k (  150) = (   0.0000000   0.4481723  -0.2726172), wk = 0.0064551
        k (  151) = (   0.0000000   0.4481723  -0.3407715), wk = 0.0064551
        k (  152) = (   0.0000000   0.5378067  -0.0681543), wk = 0.0064551
        k (  153) = (   0.0000000   0.5378067  -0.1363086), wk = 0.0064551
        k (  154) = (   0.0000000   0.5378067  -0.2044629), wk = 0.0064551
        k (  155) = (   0.0000000   0.5378067  -0.2726172), wk = 0.0064551
        k (  156) = (   0.0000000   0.5378067  -0.3407715), wk = 0.0064551
        k (  157) = (  -0.0776257   0.2240861  -0.0681543), wk = 0.0129102
        k (  158) = (  -0.0776257   0.2240861  -0.1363086), wk = 0.0129102
        k (  159) = (  -0.0776257   0.2240861  -0.2044629), wk = 0.0129102
        k (  160) = (  -0.0776257   0.2240861  -0.2726172), wk = 0.0129102
        k (  161) = (  -0.0776257   0.2240861  -0.3407715), wk = 0.0129102
        k (  162) = (  -0.0776257   0.3137206  -0.0681543), wk = 0.0129102
        k (  163) = (  -0.0776257   0.3137206  -0.1363086), wk = 0.0129102
        k (  164) = (  -0.0776257   0.3137206  -0.2044629), wk = 0.0129102
        k (  165) = (  -0.0776257   0.3137206  -0.2726172), wk = 0.0129102
        k (  166) = (  -0.0776257   0.3137206  -0.3407715), wk = 0.0129102
        k (  167) = (  -0.0776257   0.4033550  -0.0681543), wk = 0.0129102
        k (  168) = (  -0.0776257   0.4033550  -0.1363086), wk = 0.0129102
        k (  169) = (  -0.0776257   0.4033550  -0.2044629), wk = 0.0129102
        k (  170) = (  -0.0776257   0.4033550  -0.2726172), wk = 0.0129102
        k (  171) = (  -0.0776257   0.4033550  -0.3407715), wk = 0.0129102
        k (  172) = (  -0.0776257   0.4929895  -0.0681543), wk = 0.0129102
        k (  173) = (  -0.0776257   0.4929895  -0.1363086), wk = 0.0129102
        k (  174) = (  -0.0776257   0.4929895  -0.2044629), wk = 0.0129102
        k (  175) = (  -0.0776257   0.4929895  -0.2726172), wk = 0.0129102
        k (  176) = (  -0.0776257   0.4929895  -0.3407715), wk = 0.0129102
        k (  177) = (  -0.1552514   0.3585378  -0.0681543), wk = 0.0129102
        k (  178) = (  -0.1552514   0.3585378  -0.1363086), wk = 0.0129102
        k (  179) = (  -0.1552514   0.3585378  -0.2044629), wk = 0.0129102
        k (  180) = (  -0.1552514   0.3585378  -0.2726172), wk = 0.0129102
        k (  181) = (  -0.1552514   0.3585378  -0.3407715), wk = 0.0129102
        k (  182) = (  -0.1552514   0.4481723  -0.0681543), wk = 0.0129102
        k (  183) = (  -0.1552514   0.4481723  -0.1363086), wk = 0.0129102
        k (  184) = (  -0.1552514   0.4481723  -0.2044629), wk = 0.0129102
        k (  185) = (  -0.1552514   0.4481723  -0.2726172), wk = 0.0129102
        k (  186) = (  -0.1552514   0.4481723  -0.3407715), wk = 0.0129102
        k (  187) = (  -0.1552514   0.5378067  -0.0681543), wk = 0.0129102
        k (  188) = (  -0.1552514   0.5378067  -0.1363086), wk = 0.0129102
        k (  189) = (  -0.1552514   0.5378067  -0.2044629), wk = 0.0129102
        k (  190) = (  -0.1552514   0.5378067  -0.2726172), wk = 0.0129102
        k (  191) = (  -0.1552514   0.5378067  -0.3407715), wk = 0.0129102
        k (  192) = (  -0.2328771   0.4929895  -0.0681543), wk = 0.0129102
        k (  193) = (  -0.2328771   0.4929895  -0.1363086), wk = 0.0129102
        k (  194) = (  -0.2328771   0.4929895  -0.2044629), wk = 0.0129102
        k (  195) = (  -0.2328771   0.4929895  -0.2726172), wk = 0.0129102
        k (  196) = (  -0.2328771   0.4929895  -0.3407715), wk = 0.0129102

                       cryst. coord.
        k (    1) = (   0.0000000   0.0000000   0.0000000), wk = 0.0010758
        k (    2) = (   0.0000000   0.0000000   0.0909091), wk = 0.0021517
        k (    3) = (   0.0000000   0.0000000   0.1818182), wk = 0.0021517
        k (    4) = (   0.0000000   0.0000000   0.2727273), wk = 0.0021517
        k (    5) = (   0.0000000   0.0000000   0.3636364), wk = 0.0021517
        k (    6) = (   0.0000000   0.0000000   0.4545455), wk = 0.0021517
        k (    7) = (   0.0000000   0.0769231   0.0000000), wk = 0.0064551
        k (    8) = (   0.0000000   0.0769231   0.0909091), wk = 0.0064551
        k (    9) = (   0.0000000   0.0769231   0.1818182), wk = 0.0064551
        k (   10) = (   0.0000000   0.0769231   0.2727273), wk = 0.0064551
        k (   11) = (   0.0000000   0.0769231   0.3636364), wk = 0.0064551
        k (   12) = (   0.0000000   0.0769231   0.4545455), wk = 0.0064551
        k (   13) = (   0.0000000   0.1538462   0.0000000), wk = 0.0064551
        k (   14) = (   0.0000000   0.1538462   0.0909091), wk = 0.0064551
        k (   15) = (   0.0000000   0.1538462   0.1818182), wk = 0.0064551
        k (   16) = (   0.0000000   0.1538462   0.2727273), wk = 0.0064551
        k (   17) = (   0.0000000   0.1538462   0.3636364), wk = 0.0064551
        k (   18) = (   0.0000000   0.1538462   0.4545455), wk = 0.0064551
        k (   19) = (   0.0000000   0.2307692   0.0000000), wk = 0.0064551
        k (   20) = (   0.0000000   0.2307692   0.0909091), wk = 0.0064551
        k (   21) = (   0.0000000   0.2307692   0.1818182), wk = 0.0064551
        k (   22) = (   0.0000000   0.2307692   0.2727273), wk = 0.0064551
        k (   23) = (   0.0000000   0.2307692   0.3636364), wk = 0.0064551
        k (   24) = (   0.0000000   0.2307692   0.4545455), wk = 0.0064551
        k (   25) = (   0.0000000   0.3076923   0.0000000), wk = 0.0064551
        k (   26) = (   0.0000000   0.3076923   0.0909091), wk = 0.0064551
        k (   27) = (   0.0000000   0.3076923   0.1818182), wk = 0.0064551
        k (   28) = (   0.0000000   0.3076923   0.2727273), wk = 0.0064551
        k (   29) = (   0.0000000   0.3076923   0.3636364), wk = 0.0064551
        k (   30) = (   0.0000000   0.3076923   0.4545455), wk = 0.0064551
        k (   31) = (   0.0000000   0.3846154   0.0000000), wk = 0.0064551
        k (   32) = (   0.0000000   0.3846154   0.0909091), wk = 0.0064551
        k (   33) = (   0.0000000   0.3846154   0.1818182), wk = 0.0064551
        k (   34) = (   0.0000000   0.3846154   0.2727273), wk = 0.0064551
        k (   35) = (   0.0000000   0.3846154   0.3636364), wk = 0.0064551
        k (   36) = (   0.0000000   0.3846154   0.4545455), wk = 0.0064551
        k (   37) = (   0.0000000   0.4615385   0.0000000), wk = 0.0064551
        k (   38) = (   0.0000000   0.4615385   0.0909091), wk = 0.0064551
        k (   39) = (   0.0000000   0.4615385   0.1818182), wk = 0.0064551
        k (   40) = (   0.0000000   0.4615385   0.2727273), wk = 0.0064551
        k (   41) = (   0.0000000   0.4615385   0.3636364), wk = 0.0064551
        k (   42) = (   0.0000000   0.4615385   0.4545455), wk = 0.0064551
        k (   43) = (   0.0769231   0.0769231   0.0000000), wk = 0.0064551
        k (   44) = (   0.0769231   0.0769231   0.0909091), wk = 0.0129102
        k (   45) = (   0.0769231   0.0769231   0.1818182), wk = 0.0129102
        k (   46) = (   0.0769231   0.0769231   0.2727273), wk = 0.0129102
        k (   47) = (   0.0769231   0.0769231   0.3636364), wk = 0.0129102
        k (   48) = (   0.0769231   0.0769231   0.4545455), wk = 0.0129102
        k (   49) = (   0.0769231   0.1538462   0.0000000), wk = 0.0129102
        k (   50) = (   0.0769231   0.1538462   0.0909091), wk = 0.0129102
        k (   51) = (   0.0769231   0.1538462   0.1818182), wk = 0.0129102
        k (   52) = (   0.0769231   0.1538462   0.2727273), wk = 0.0129102
        k (   53) = (   0.0769231   0.1538462   0.3636364), wk = 0.0129102
        k (   54) = (   0.0769231   0.1538462   0.4545455), wk = 0.0129102
        k (   55) = (   0.0769231   0.2307692   0.0000000), wk = 0.0129102
        k (   56) = (   0.0769231   0.2307692   0.0909091), wk = 0.0129102
        k (   57) = (   0.0769231   0.2307692   0.1818182), wk = 0.0129102
        k (   58) = (   0.0769231   0.2307692   0.2727273), wk = 0.0129102
        k (   59) = (   0.0769231   0.2307692   0.3636364), wk = 0.0129102
        k (   60) = (   0.0769231   0.2307692   0.4545455), wk = 0.0129102
        k (   61) = (   0.0769231   0.3076923   0.0000000), wk = 0.0129102
        k (   62) = (   0.0769231   0.3076923   0.0909091), wk = 0.0129102
        k (   63) = (   0.0769231   0.3076923   0.1818182), wk = 0.0129102
        k (   64) = (   0.0769231   0.3076923   0.2727273), wk = 0.0129102
        k (   65) = (   0.0769231   0.3076923   0.3636364), wk = 0.0129102
        k (   66) = (   0.0769231   0.3076923   0.4545455), wk = 0.0129102
        k (   67) = (   0.0769231   0.3846154   0.0000000), wk = 0.0129102
        k (   68) = (   0.0769231   0.3846154   0.0909091), wk = 0.0129102
        k (   69) = (   0.0769231   0.3846154   0.1818182), wk = 0.0129102
        k (   70) = (   0.0769231   0.3846154   0.2727273), wk = 0.0129102
        k (   71) = (   0.0769231   0.3846154   0.3636364), wk = 0.0129102
        k (   72) = (   0.0769231   0.3846154   0.4545455), wk = 0.0129102
        k (   73) = (   0.0769231   0.4615385   0.0000000), wk = 0.0064551
        k (   74) = (   0.0769231   0.4615385   0.0909091), wk = 0.0129102
        k (   75) = (   0.0769231   0.4615385   0.1818182), wk = 0.0129102
        k (   76) = (   0.0769231   0.4615385   0.2727273), wk = 0.0129102
        k (   77) = (   0.0769231   0.4615385   0.3636364), wk = 0.0129102
        k (   78) = (   0.0769231   0.4615385   0.4545455), wk = 0.0129102
        k (   79) = (   0.1538462   0.1538462   0.0000000), wk = 0.0064551
        k (   80) = (   0.1538462   0.1538462   0.0909091), wk = 0.0129102
        k (   81) = (   0.1538462   0.1538462   0.1818182), wk = 0.0129102
        k (   82) = (   0.1538462   0.1538462   0.2727273), wk = 0.0129102
        k (   83) = (   0.1538462   0.1538462   0.3636364), wk = 0.0129102
        k (   84) = (   0.1538462   0.1538462   0.4545455), wk = 0.0129102
        k (   85) = (   0.1538462   0.2307692   0.0000000), wk = 0.0129102
        k (   86) = (   0.1538462   0.2307692   0.0909091), wk = 0.0129102
        k (   87) = (   0.1538462   0.2307692   0.1818182), wk = 0.0129102
        k (   88) = (   0.1538462   0.2307692   0.2727273), wk = 0.0129102
        k (   89) = (   0.1538462   0.2307692   0.3636364), wk = 0.0129102
        k (   90) = (   0.1538462   0.2307692   0.4545455), wk = 0.0129102
        k (   91) = (   0.1538462   0.3076923   0.0000000), wk = 0.0129102
        k (   92) = (   0.1538462   0.3076923   0.0909091), wk = 0.0129102
        k (   93) = (   0.1538462   0.3076923   0.1818182), wk = 0.0129102
        k (   94) = (   0.1538462   0.3076923   0.2727273), wk = 0.0129102
        k (   95) = (   0.1538462   0.3076923   0.3636364), wk = 0.0129102
        k (   96) = (   0.1538462   0.3076923   0.4545455), wk = 0.0129102
        k (   97) = (   0.1538462   0.3846154   0.0000000), wk = 0.0129102
        k (   98) = (   0.1538462   0.3846154   0.0909091), wk = 0.0129102
        k (   99) = (   0.1538462   0.3846154   0.1818182), wk = 0.0129102
        k (  100) = (   0.1538462   0.3846154   0.2727273), wk = 0.0129102
        k (  101) = (   0.1538462   0.3846154   0.3636364), wk = 0.0129102
        k (  102) = (   0.1538462   0.3846154   0.4545455), wk = 0.0129102
        k (  103) = (   0.2307692   0.2307692   0.0000000), wk = 0.0064551
        k (  104) = (   0.2307692   0.2307692   0.0909091), wk = 0.0129102
        k (  105) = (   0.2307692   0.2307692   0.1818182), wk = 0.0129102
        k (  106) = (   0.2307692   0.2307692   0.2727273), wk = 0.0129102
        k (  107) = (   0.2307692   0.2307692   0.3636364), wk = 0.0129102
        k (  108) = (   0.2307692   0.2307692   0.4545455), wk = 0.0129102
        k (  109) = (   0.2307692   0.3076923   0.0000000), wk = 0.0129102
        k (  110) = (   0.2307692   0.3076923   0.0909091), wk = 0.0129102
        k (  111) = (   0.2307692   0.3076923   0.1818182), wk = 0.0129102
        k (  112) = (   0.2307692   0.3076923   0.2727273), wk = 0.0129102
        k (  113) = (   0.2307692   0.3076923   0.3636364), wk = 0.0129102
        k (  114) = (   0.2307692   0.3076923   0.4545455), wk = 0.0129102
        k (  115) = (   0.2307692   0.3846154   0.0000000), wk = 0.0064551
        k (  116) = (   0.2307692   0.3846154   0.0909091), wk = 0.0129102
        k (  117) = (   0.2307692   0.3846154   0.1818182), wk = 0.0129102
        k (  118) = (   0.2307692   0.3846154   0.2727273), wk = 0.0129102
        k (  119) = (   0.2307692   0.3846154   0.3636364), wk = 0.0129102
        k (  120) = (   0.2307692   0.3846154   0.4545455), wk = 0.0129102
        k (  121) = (   0.3076923   0.3076923   0.0000000), wk = 0.0064551
        k (  122) = (   0.3076923   0.3076923   0.0909091), wk = 0.0129102
        k (  123) = (   0.3076923   0.3076923   0.1818182), wk = 0.0129102
        k (  124) = (   0.3076923   0.3076923   0.2727273), wk = 0.0129102
        k (  125) = (   0.3076923   0.3076923   0.3636364), wk = 0.0129102
        k (  126) = (   0.3076923   0.3076923   0.4545455), wk = 0.0129102
        k (  127) = (   0.0000000   0.0769231  -0.0909091), wk = 0.0064551
        k (  128) = (   0.0000000   0.0769231  -0.1818182), wk = 0.0064551
        k (  129) = (   0.0000000   0.0769231  -0.2727273), wk = 0.0064551
        k (  130) = (   0.0000000   0.0769231  -0.3636364), wk = 0.0064551
        k (  131) = (   0.0000000   0.0769231  -0.4545455), wk = 0.0064551
        k (  132) = (   0.0000000   0.1538462  -0.0909091), wk = 0.0064551
        k (  133) = (   0.0000000   0.1538462  -0.1818182), wk = 0.0064551
        k (  134) = (   0.0000000   0.1538462  -0.2727273), wk = 0.0064551
        k (  135) = (   0.0000000   0.1538462  -0.3636364), wk = 0.0064551
        k (  136) = (   0.0000000   0.1538462  -0.4545455), wk = 0.0064551
        k (  137) = (   0.0000000   0.2307692  -0.0909091), wk = 0.0064551
        k (  138) = (   0.0000000   0.2307692  -0.1818182), wk = 0.0064551
        k (  139) = (   0.0000000   0.2307692  -0.2727273), wk = 0.0064551
        k (  140) = (   0.0000000   0.2307692  -0.3636364), wk = 0.0064551
        k (  141) = (   0.0000000   0.2307692  -0.4545455), wk = 0.0064551
        k (  142) = (   0.0000000   0.3076923  -0.0909091), wk = 0.0064551
        k (  143) = (   0.0000000   0.3076923  -0.1818182), wk = 0.0064551
        k (  144) = (   0.0000000   0.3076923  -0.2727273), wk = 0.0064551
        k (  145) = (   0.0000000   0.3076923  -0.3636364), wk = 0.0064551
        k (  146) = (   0.0000000   0.3076923  -0.4545455), wk = 0.0064551
        k (  147) = (   0.0000000   0.3846154  -0.0909091), wk = 0.0064551
        k (  148) = (   0.0000000   0.3846154  -0.1818182), wk = 0.0064551
        k (  149) = (   0.0000000   0.3846154  -0.2727273), wk = 0.0064551
        k (  150) = (   0.0000000   0.3846154  -0.3636364), wk = 0.0064551
        k (  151) = (   0.0000000   0.3846154  -0.4545455), wk = 0.0064551
        k (  152) = (   0.0000000   0.4615385  -0.0909091), wk = 0.0064551
        k (  153) = (   0.0000000   0.4615385  -0.1818182), wk = 0.0064551
        k (  154) = (   0.0000000   0.4615385  -0.2727273), wk = 0.0064551
        k (  155) = (   0.0000000   0.4615385  -0.3636364), wk = 0.0064551
        k (  156) = (   0.0000000   0.4615385  -0.4545455), wk = 0.0064551
        k (  157) = (  -0.0769231   0.2307692  -0.0909091), wk = 0.0129102
        k (  158) = (  -0.0769231   0.2307692  -0.1818182), wk = 0.0129102
        k (  159) = (  -0.0769231   0.2307692  -0.2727273), wk = 0.0129102
        k (  160) = (  -0.0769231   0.2307692  -0.3636364), wk = 0.0129102
        k (  161) = (  -0.0769231   0.2307692  -0.4545455), wk = 0.0129102
        k (  162) = (  -0.0769231   0.3076923  -0.0909091), wk = 0.0129102
        k (  163) = (  -0.0769231   0.3076923  -0.1818182), wk = 0.0129102
        k (  164) = (  -0.0769231   0.3076923  -0.2727273), wk = 0.0129102
        k (  165) = (  -0.0769231   0.3076923  -0.3636364), wk = 0.0129102
        k (  166) = (  -0.0769231   0.3076923  -0.4545455), wk = 0.0129102
        k (  167) = (  -0.0769231   0.3846154  -0.0909091), wk = 0.0129102
        k (  168) = (  -0.0769231   0.3846154  -0.1818182), wk = 0.0129102
        k (  169) = (  -0.0769231   0.3846154  -0.2727273), wk = 0.0129102
        k (  170) = (  -0.0769231   0.3846154  -0.3636364), wk = 0.0129102
        k (  171) = (  -0.0769231   0.3846154  -0.4545455), wk = 0.0129102
        k (  172) = (  -0.0769231   0.4615385  -0.0909091), wk = 0.0129102
        k (  173) = (  -0.0769231   0.4615385  -0.1818182), wk = 0.0129102
        k (  174) = (  -0.0769231   0.4615385  -0.2727273), wk = 0.0129102
        k (  175) = (  -0.0769231   0.4615385  -0.3636364), wk = 0.0129102
        k (  176) = (  -0.0769231   0.4615385  -0.4545455), wk = 0.0129102
        k (  177) = (  -0.1538462   0.3846154  -0.0909091), wk = 0.0129102
        k (  178) = (  -0.1538462   0.3846154  -0.1818182), wk = 0.0129102
        k (  179) = (  -0.1538462   0.3846154  -0.2727273), wk = 0.0129102
        k (  180) = (  -0.1538462   0.3846154  -0.3636364), wk = 0.0129102
        k (  181) = (  -0.1538462   0.3846154  -0.4545455), wk = 0.0129102
        k (  182) = (  -0.1538462   0.4615385  -0.0909091), wk = 0.0129102
        k (  183) = (  -0.1538462   0.4615385  -0.1818182), wk = 0.0129102
        k (  184) = (  -0.1538462   0.4615385  -0.2727273), wk = 0.0129102
        k (  185) = (  -0.1538462   0.4615385  -0.3636364), wk = 0.0129102
        k (  186) = (  -0.1538462   0.4615385  -0.4545455), wk = 0.0129102
        k (  187) = (  -0.1538462   0.5384615  -0.0909091), wk = 0.0129102
        k (  188) = (  -0.1538462   0.5384615  -0.1818182), wk = 0.0129102
        k (  189) = (  -0.1538462   0.5384615  -0.2727273), wk = 0.0129102
        k (  190) = (  -0.1538462   0.5384615  -0.3636364), wk = 0.0129102
        k (  191) = (  -0.1538462   0.5384615  -0.4545455), wk = 0.0129102
        k (  192) = (  -0.2307692   0.5384615  -0.0909091), wk = 0.0129102
        k (  193) = (  -0.2307692   0.5384615  -0.1818182), wk = 0.0129102
        k (  194) = (  -0.2307692   0.5384615  -0.2727273), wk = 0.0129102
        k (  195) = (  -0.2307692   0.5384615  -0.3636364), wk = 0.0129102
        k (  196) = (  -0.2307692   0.5384615  -0.4545455), wk = 0.0129102

     Atomic wfc used for the projector on the Hubbard manifold are orthogonalized

     Total time spent up to now is:
     HP           :      4.18s CPU     11.64s WALL

      =--------------------------------------------=
                 SOLVE THE LINEAR SYSTEM
      =--------------------------------------------=

      atom #  1   q point #   1   iter #   1
 
     Pert. #  1: Fermi energy shift (Ry) =     3.6551E-01     1.5966E-11
      chi:   1  -0.2785901861
      Average number of iter. to solve lin. system:   37.8
      Total CPU time :    67.9 s

      atom #  1   q point #   1   iter #   2
 
     Pert. #  1: Fermi energy shift (Ry) =     1.5318E-01     1.9526E-10
      chi:   1  -0.0465787983   residue:    0.2320113878
      Average number of iter. to solve lin. system:   14.2
      Total CPU time :    87.4 s

      atom #  1   q point #   1   iter #   3
 
     Pert. #  1: Fermi energy shift (Ry) =     2.3000E-01    -5.2785E-12
      chi:   1  -0.1273008140   residue:    0.0807220156
      Average number of iter. to solve lin. system:   13.5
      Total CPU time :   112.0 s

      atom #  1   q point #   1   iter #   4
 
     Pert. #  1: Fermi energy shift (Ry) =     2.3251E-01     9.1864E-12
      chi:   1  -0.1280773210   residue:    0.0007765070
      Average number of iter. to solve lin. system:   14.8
      Total CPU time :   134.8 s

      atom #  1   q point #   1   iter #   5
 
     Pert. #  1: Fermi energy shift (Ry) =     2.3240E-01     9.0967E-12
      chi:   1  -0.1274127465   residue:    0.0006645745
      Average number of iter. to solve lin. system:   15.4
      Total CPU time :   158.9 s

      atom #  1   q point #   1   iter #   6
 
     Pert. #  1: Fermi energy shift (Ry) =     2.3214E-01     9.0135E-12
      chi:   1  -0.1271901637   residue:    0.0002225828
      Average number of iter. to solve lin. system:   15.4
      Total CPU time :   182.5 s

      atom #  1   q point #   1   iter #   7
 
     Pert. #  1: Fermi energy shift (Ry) =     2.3193E-01     8.1503E-12
      chi:   1  -0.1272110732   residue:    0.0000209094
      Average number of iter. to solve lin. system:   15.0
      Total CPU time :   208.3 s

      atom #  1   q point #   1   iter #   8
 
     Pert. #  1: Fermi energy shift (Ry) =     2.3200E-01     9.6043E-12
      chi:   1  -0.1272162624   residue:    0.0000051892
      Average number of iter. to solve lin. system:   15.1
      Total CPU time :   234.9 s

      atom #  1   q point #   1   iter #   9
 
     Pert. #  1: Fermi energy shift (Ry) =     2.3201E-01     9.1002E-12
      chi:   1  -0.1272194445   residue:    0.0000031822
      Average number of iter. to solve lin. system:   14.7
      Total CPU time :   257.7 s

      atom #  1   q point #   1   iter #  10
 
     Pert. #  1: Fermi energy shift (Ry) =     2.3202E-01     9.1314E-12
      chi:   1  -0.1272189346   residue:    0.0000005099
      Average number of iter. to solve lin. system:   15.1
      Total CPU time :   281.8 s

      atom #  1   q point #   1   iter #  11
 
     Pert. #  1: Fermi energy shift (Ry) =     2.3202E-01     9.1282E-12
      chi:   1  -0.1272199111   residue:    0.0000009765
      Average number of iter. to solve lin. system:   15.9
      Total CPU time :   307.5 s

      atom #  1   q point #   1   iter #  12
 
     Pert. #  1: Fermi energy shift (Ry) =     2.3202E-01     9.1313E-12
      chi:   1  -0.1272199351   residue:    0.0000000240
      Average number of iter. to solve lin. system:   14.8
      Total CPU time :   331.3 s
      
      =--------------------------------------------=
             CONVERGENCE HAS BEEN REACHED
      =--------------------------------------------=


     =-------------------------------------------------------------=

     Calculation for q #   2 = (   0.0000000  -0.5826240   0.0000000 )

     =-------------------------------------------------------------=

     Performing NSCF calculation at all points k and k+q...
     Subspace diagonalization in iterative solution of the eigenvalue problem:
     one sub-group per band group will be used
     scalapack distributed-memory algorithm (size of sub-group:  4*  4 procs)

 
     Parallelization info
     --------------------
     sticks:   dense  smooth     PW     G-vecs:    dense   smooth      PW
     Min          62      62     18                 2648     2648     432
     Max          63      63     19                 2655     2655     441
     Sum        1507    1507    451                63657    63657   10421
 
     Using Slab Decomposition
 


     bravais-lattice index     =            0
     lattice parameter (alat)  =       7.1073  a.u.
     unit-cell volume          =     407.2428 (a.u.)^3
     number of atoms/cell      =            3
     number of atomic types    =            2
     number of electrons       =        50.00
     number of Kohn-Sham states=           30
     kinetic-energy cutoff     =     110.0000  Ry
     charge density cutoff     =     440.0000  Ry
     Exchange-correlation= PBE
                           (   1   4   3   4   0   0   0)
     Hubbard projectors: ortho-atomic
     Hubbard parameters of DFT+U (Dudarev formulation) in eV:
     U(Pt-5d) =  0.0001

     Internal variables: lda_plus_u = T, lda_plus_u_kind = 0

     celldm(1)=   7.107260  celldm(2)=   0.000000  celldm(3)=   0.000000
     celldm(4)=   0.000000  celldm(5)=   0.000000  celldm(6)=   0.000000

     crystal axes: (cart. coord. in units of alat)
               a(1) = (   0.990948   0.000000   0.000000 )  
               a(2) = (  -0.495474   0.858186   0.000000 )  
               a(3) = (   0.000000   0.000000   1.333872 )  

     reciprocal axes: (cart. coord. in units 2 pi/alat)
               b(1) = (  1.009134  0.582624  0.000000 )  
               b(2) = (  0.000000  1.165248  0.000000 )  
               b(3) = (  0.000000  0.000000  0.749697 )  


     PseudoPot. # 1 for Pt read from file:
     ./Pt.upf
     MD5 check sum: 3caa314b32314335c676ebce8d0bd64e
     Pseudo is Norm-conserving + core correction, Zval = 18.0
     Generated using ONCVPSP code by D. R. Hamann
     Using radial grid of 1374 points,  8 beta functions with: 
                l(1) =   0
                l(2) =   0
                l(3) =   1
                l(4) =   1
                l(5) =   2
                l(6) =   2
                l(7) =   3
                l(8) =   3

     PseudoPot. # 2 for Se read from file:
     ./Se.upf
     MD5 check sum: 3cc46b3642295b3f4fdae63b742ce36d
     Pseudo is Norm-conserving + core correction, Zval = 16.0
     Generated using ONCVPSP code by D. R. Hamann
     Using radial grid of 1214 points,  6 beta functions with: 
                l(1) =   0
                l(2) =   0
                l(3) =   1
                l(4) =   1
                l(5) =   2
                l(6) =   2

     atomic species   valence    mass     pseudopotential
        Pt            18.00   195.08400     Pt( 1.00)
        Se            16.00    78.96000     Se( 1.00)

     12 Sym. Ops., with inversion, found



   Cartesian axes

     site n.     atom                  positions (alat units)
         1           Pt  tau(   1) = (   0.0000000   0.0000000   0.0000000  )
         2           Se  tau(   2) = (   0.4954747   0.2860619   0.9791000  )
         3           Se  tau(   3) = (  -0.0000005   0.5721246   0.3547718  )

     number of k points=  1008  Methfessel-Paxton smearing, width (Ry)=  0.0080

     Number of k-points >= 100: set verbosity='high' to print them.

     Dense  grid:    63657 G-vectors     FFT dimensions: (  48,  48,  64)

     Estimated max dynamical RAM per process >      11.84 MB

     Estimated total dynamical RAM >     284.22 MB

     The potential is recalculated from file :
     .//lscratch.bUPtSe2/HP/bUPtSe2.save/charge-density


     STARTING HUBBARD OCCUPATIONS:

     =================== HUBBARD OCCUPATIONS ===================
     ------------------------ ATOM    1 ------------------------
     Tr[ns(  1)] =   8.74060
     eigenvalues:
       0.719  0.719  0.975  0.979  0.979
     eigenvectors (columns):
       0.000  0.000 -1.000 -0.000  0.000
      -0.419  0.691  0.000 -0.560  0.185
       0.691  0.419  0.000  0.185  0.560
       0.504  0.306 -0.000 -0.253 -0.767
      -0.306  0.504 -0.000  0.767 -0.253
     occupation matrix ns (before diag.):
       0.975 -0.000 -0.000 -0.000 -0.000
      -0.000  0.809 -0.000  0.000 -0.124
      -0.000 -0.000  0.809 -0.124 -0.000
      -0.000  0.000 -0.124  0.888  0.000
      -0.000 -0.124 -0.000  0.000  0.888

     Number of occupied Hubbard levels =    8.7406

     Atomic wfc used for Hubbard projectors are orthogonalized

     Starting wfcs are   28 atomic +    2 random wfcs

     Band Structure Calculation
     Davidson diagonalization with overlap

     ethr =  1.00E-11,  avg # of iterations = 18.0

     total cpu time spent up to now is       -1.0 secs

     End of band structure calculation

     Number of k-points >= 100: set verbosity='high' to print the bands.

     the Fermi energy is    13.8417 ev
     (compare with:    13.8421 eV, computed in scf)

     Writing all to output data dir .//lscratch.bUPtSe2/HP/bUPtSe2.save/
     Done!

                   WRITING LINEAR-RESPONSE SUMMARY:


     Number of symmetries in the small group of q, nsymq =  4
      + the symmetry q -> -q+G 

     Symmetry matrices (and vectors of fractional translations if f/=0):

     isym =  1     identity                                     

     cryst.   s( 1) = (     1          0          0      )
                      (     0          1          0      )
                      (     0          0          1      )

     cart.    s( 1) = (  1.0000000  0.0000000  0.0000000 )
                      (  0.0000000  1.0000000  0.0000000 )
                      (  0.0000000  0.0000000  1.0000000 )


     isym =  2     180 deg rotation - cart. axis [1,0,0]        

     cryst.   s( 2) = (     1          0          0      )
                      (    -1         -1          0      )
                      (     0          0         -1      )

     cart.    s( 2) = (  1.0000000  0.0000000  0.0000000 )
                      (  0.0000000 -1.0000000  0.0000000 )
                      (  0.0000000  0.0000000 -1.0000000 )


     isym =  3     inversion                                    

     cryst.   s( 3) = (    -1          0          0      )
                      (     0         -1          0      )
                      (     0          0         -1      )

     cart.    s( 3) = ( -1.0000000  0.0000000  0.0000000 )
                      (  0.0000000 -1.0000000  0.0000000 )
                      (  0.0000000  0.0000000 -1.0000000 )


     isym =  4     inv. 180 deg rotation - cart. axis [1,0,0]   

     cryst.   s( 4) = (    -1          0          0      )
                      (     1          1          0      )
                      (     0          0          1      )

     cart.    s( 4) = ( -1.0000000 -0.0000000  0.0000000 )
                      (  0.0000000  1.0000000  0.0000000 )
                      (  0.0000000  0.0000000  1.0000000 )


     This transformation sends q -> -q+G

     isym =  5     identity                                     

     cryst.   s( 5) = (     1          0          0      )
                      (     0          1          0      )
                      (     0          0          1      )

     cart.    s( 5) = (  1.0000000  0.0000000  0.0000000 )
                      (  0.0000000  1.0000000  0.0000000 )
                      (  0.0000000  0.0000000  1.0000000 )


     G cutoff =  562.9857  (   2650 G-vectors)     FFT grid: ( 48, 48, 64)

     Number of k (and k+q if q/=0) points =  1008  Methfessel-Paxton smearing, width (Ry) =  0.0080

                       cart. coord. (in units 2pi/alat)
        k (    1) = (   0.0000000   0.0000000   0.0000000), wk = 0.0010758
        k (    2) = (   0.0000000  -0.5826240   0.0000000), wk = 0.0000000
        k (    3) = (   0.0000000   0.0000000   0.0681543), wk = 0.0021517
        k (    4) = (   0.0000000  -0.5826240   0.0681543), wk = 0.0000000
        k (    5) = (   0.0000000   0.0000000   0.1363086), wk = 0.0021517
        k (    6) = (   0.0000000  -0.5826240   0.1363086), wk = 0.0000000
        k (    7) = (   0.0000000   0.0000000   0.2044629), wk = 0.0021517
        k (    8) = (   0.0000000  -0.5826240   0.2044629), wk = 0.0000000
        k (    9) = (   0.0000000   0.0000000   0.2726172), wk = 0.0021517
        k (   10) = (   0.0000000  -0.5826240   0.2726172), wk = 0.0000000
        k (   11) = (   0.0000000   0.0000000   0.3407715), wk = 0.0021517
        k (   12) = (   0.0000000  -0.5826240   0.3407715), wk = 0.0000000
        k (   13) = (   0.0000000   0.0896345   0.0000000), wk = 0.0021517
        k (   14) = (   0.0000000  -0.4929895   0.0000000), wk = 0.0000000
        k (   15) = (   0.0000000   0.0896345   0.0681543), wk = 0.0021517
        k (   16) = (   0.0000000  -0.4929895   0.0681543), wk = 0.0000000
        k (   17) = (   0.0000000   0.0896345   0.1363086), wk = 0.0021517
        k (   18) = (   0.0000000  -0.4929895   0.1363086), wk = 0.0000000
        k (   19) = (   0.0000000   0.0896345   0.2044629), wk = 0.0021517
        k (   20) = (   0.0000000  -0.4929895   0.2044629), wk = 0.0000000
        k (   21) = (   0.0000000   0.0896345   0.2726172), wk = 0.0021517
        k (   22) = (   0.0000000  -0.4929895   0.2726172), wk = 0.0000000
        k (   23) = (   0.0000000   0.0896345   0.3407715), wk = 0.0021517
        k (   24) = (   0.0000000  -0.4929895   0.3407715), wk = 0.0000000
        k (   25) = (   0.0000000   0.1792689   0.0000000), wk = 0.0021517
        k (   26) = (   0.0000000  -0.4033550   0.0000000), wk = 0.0000000
        k (   27) = (   0.0000000   0.1792689   0.0681543), wk = 0.0021517
        k (   28) = (   0.0000000  -0.4033550   0.0681543), wk = 0.0000000
        k (   29) = (   0.0000000   0.1792689   0.1363086), wk = 0.0021517
        k (   30) = (   0.0000000  -0.4033550   0.1363086), wk = 0.0000000
        k (   31) = (   0.0000000   0.1792689   0.2044629), wk = 0.0021517
        k (   32) = (   0.0000000  -0.4033550   0.2044629), wk = 0.0000000
        k (   33) = (   0.0000000   0.1792689   0.2726172), wk = 0.0021517
        k (   34) = (   0.0000000  -0.4033550   0.2726172), wk = 0.0000000
        k (   35) = (   0.0000000   0.1792689   0.3407715), wk = 0.0021517
        k (   36) = (   0.0000000  -0.4033550   0.3407715), wk = 0.0000000
        k (   37) = (   0.0000000   0.2689034   0.0000000), wk = 0.0021517
        k (   38) = (   0.0000000  -0.3137206   0.0000000), wk = 0.0000000
        k (   39) = (   0.0000000   0.2689034   0.0681543), wk = 0.0021517
        k (   40) = (   0.0000000  -0.3137206   0.0681543), wk = 0.0000000
        k (   41) = (   0.0000000   0.2689034   0.1363086), wk = 0.0021517
        k (   42) = (   0.0000000  -0.3137206   0.1363086), wk = 0.0000000
        k (   43) = (   0.0000000   0.2689034   0.2044629), wk = 0.0021517
        k (   44) = (   0.0000000  -0.3137206   0.2044629), wk = 0.0000000
        k (   45) = (   0.0000000   0.2689034   0.2726172), wk = 0.0021517
        k (   46) = (   0.0000000  -0.3137206   0.2726172), wk = 0.0000000
        k (   47) = (   0.0000000   0.2689034   0.3407715), wk = 0.0021517
        k (   48) = (   0.0000000  -0.3137206   0.3407715), wk = 0.0000000
        k (   49) = (   0.0000000   0.3585378   0.0000000), wk = 0.0021517
        k (   50) = (   0.0000000  -0.2240861   0.0000000), wk = 0.0000000
        k (   51) = (   0.0000000   0.3585378   0.0681543), wk = 0.0021517
        k (   52) = (   0.0000000  -0.2240861   0.0681543), wk = 0.0000000
        k (   53) = (   0.0000000   0.3585378   0.1363086), wk = 0.0021517
        k (   54) = (   0.0000000  -0.2240861   0.1363086), wk = 0.0000000
        k (   55) = (   0.0000000   0.3585378   0.2044629), wk = 0.0021517
        k (   56) = (   0.0000000  -0.2240861   0.2044629), wk = 0.0000000
        k (   57) = (   0.0000000   0.3585378   0.2726172), wk = 0.0021517
        k (   58) = (   0.0000000  -0.2240861   0.2726172), wk = 0.0000000
        k (   59) = (   0.0000000   0.3585378   0.3407715), wk = 0.0021517
        k (   60) = (   0.0000000  -0.2240861   0.3407715), wk = 0.0000000
        k (   61) = (   0.0000000   0.4481723   0.0000000), wk = 0.0021517
        k (   62) = (   0.0000000  -0.1344517   0.0000000), wk = 0.0000000
        k (   63) = (   0.0000000   0.4481723   0.0681543), wk = 0.0021517
        k (   64) = (   0.0000000  -0.1344517   0.0681543), wk = 0.0000000
        k (   65) = (   0.0000000   0.4481723   0.1363086), wk = 0.0021517
        k (   66) = (   0.0000000  -0.1344517   0.1363086), wk = 0.0000000
        k (   67) = (   0.0000000   0.4481723   0.2044629), wk = 0.0021517
        k (   68) = (   0.0000000  -0.1344517   0.2044629), wk = 0.0000000
        k (   69) = (   0.0000000   0.4481723   0.2726172), wk = 0.0021517
        k (   70) = (   0.0000000  -0.1344517   0.2726172), wk = 0.0000000
        k (   71) = (   0.0000000   0.4481723   0.3407715), wk = 0.0021517
        k (   72) = (   0.0000000  -0.1344517   0.3407715), wk = 0.0000000
        k (   73) = (   0.0000000   0.5378067   0.0000000), wk = 0.0021517
        k (   74) = (   0.0000000  -0.0448172   0.0000000), wk = 0.0000000
        k (   75) = (   0.0000000   0.5378067   0.0681543), wk = 0.0021517
        k (   76) = (   0.0000000  -0.0448172   0.0681543), wk = 0.0000000
        k (   77) = (   0.0000000   0.5378067   0.1363086), wk = 0.0021517
        k (   78) = (   0.0000000  -0.0448172   0.1363086), wk = 0.0000000
        k (   79) = (   0.0000000   0.5378067   0.2044629), wk = 0.0021517
        k (   80) = (   0.0000000  -0.0448172   0.2044629), wk = 0.0000000
        k (   81) = (   0.0000000   0.5378067   0.2726172), wk = 0.0021517
        k (   82) = (   0.0000000  -0.0448172   0.2726172), wk = 0.0000000
        k (   83) = (   0.0000000   0.5378067   0.3407715), wk = 0.0021517
        k (   84) = (   0.0000000  -0.0448172   0.3407715), wk = 0.0000000
        k (   85) = (   0.0776257   0.1344517   0.0000000), wk = 0.0043034
        k (   86) = (   0.0776257  -0.4481723   0.0000000), wk = 0.0000000
        k (   87) = (   0.0776257   0.1344517   0.0681543), wk = 0.0043034
        k (   88) = (   0.0776257  -0.4481723   0.0681543), wk = 0.0000000
        k (   89) = (   0.0776257   0.1344517   0.1363086), wk = 0.0043034
        k (   90) = (   0.0776257  -0.4481723   0.1363086), wk = 0.0000000
        k (   91) = (   0.0776257   0.1344517   0.2044629), wk = 0.0043034
        k (   92) = (   0.0776257  -0.4481723   0.2044629), wk = 0.0000000
        k (   93) = (   0.0776257   0.1344517   0.2726172), wk = 0.0043034
        k (   94) = (   0.0776257  -0.4481723   0.2726172), wk = 0.0000000
        k (   95) = (   0.0776257   0.1344517   0.3407715), wk = 0.0043034
        k (   96) = (   0.0776257  -0.4481723   0.3407715), wk = 0.0000000
        k (   97) = (   0.0776257   0.2240861   0.0000000), wk = 0.0043034
        k (   98) = (   0.0776257  -0.3585378   0.0000000), wk = 0.0000000
        k (   99) = (   0.0776257   0.2240861   0.0681543), wk = 0.0043034
        k (  100) = (   0.0776257  -0.3585378   0.0681543), wk = 0.0000000
        k (  101) = (   0.0776257   0.2240861   0.1363086), wk = 0.0043034
        k (  102) = (   0.0776257  -0.3585378   0.1363086), wk = 0.0000000
        k (  103) = (   0.0776257   0.2240861   0.2044629), wk = 0.0043034
        k (  104) = (   0.0776257  -0.3585378   0.2044629), wk = 0.0000000
        k (  105) = (   0.0776257   0.2240861   0.2726172), wk = 0.0043034
        k (  106) = (   0.0776257  -0.3585378   0.2726172), wk = 0.0000000
        k (  107) = (   0.0776257   0.2240861   0.3407715), wk = 0.0043034
        k (  108) = (   0.0776257  -0.3585378   0.3407715), wk = 0.0000000
        k (  109) = (   0.0776257   0.3137206   0.0000000), wk = 0.0043034
        k (  110) = (   0.0776257  -0.2689034   0.0000000), wk = 0.0000000
        k (  111) = (   0.0776257   0.3137206   0.0681543), wk = 0.0043034
        k (  112) = (   0.0776257  -0.2689034   0.0681543), wk = 0.0000000
        k (  113) = (   0.0776257   0.3137206   0.1363086), wk = 0.0043034
        k (  114) = (   0.0776257  -0.2689034   0.1363086), wk = 0.0000000
        k (  115) = (   0.0776257   0.3137206   0.2044629), wk = 0.0043034
        k (  116) = (   0.0776257  -0.2689034   0.2044629), wk = 0.0000000
        k (  117) = (   0.0776257   0.3137206   0.2726172), wk = 0.0043034
        k (  118) = (   0.0776257  -0.2689034   0.2726172), wk = 0.0000000
        k (  119) = (   0.0776257   0.3137206   0.3407715), wk = 0.0043034
        k (  120) = (   0.0776257  -0.2689034   0.3407715), wk = 0.0000000
        k (  121) = (   0.0776257   0.4033550   0.0000000), wk = 0.0043034
        k (  122) = (   0.0776257  -0.1792689   0.0000000), wk = 0.0000000
        k (  123) = (   0.0776257   0.4033550   0.0681543), wk = 0.0043034
        k (  124) = (   0.0776257  -0.1792689   0.0681543), wk = 0.0000000
        k (  125) = (   0.0776257   0.4033550   0.1363086), wk = 0.0043034
        k (  126) = (   0.0776257  -0.1792689   0.1363086), wk = 0.0000000
        k (  127) = (   0.0776257   0.4033550   0.2044629), wk = 0.0043034
        k (  128) = (   0.0776257  -0.1792689   0.2044629), wk = 0.0000000
        k (  129) = (   0.0776257   0.4033550   0.2726172), wk = 0.0043034
        k (  130) = (   0.0776257  -0.1792689   0.2726172), wk = 0.0000000
        k (  131) = (   0.0776257   0.4033550   0.3407715), wk = 0.0043034
        k (  132) = (   0.0776257  -0.1792689   0.3407715), wk = 0.0000000
        k (  133) = (   0.0776257   0.4929895   0.0000000), wk = 0.0043034
        k (  134) = (   0.0776257  -0.0896345   0.0000000), wk = 0.0000000
        k (  135) = (   0.0776257   0.4929895   0.0681543), wk = 0.0043034
        k (  136) = (   0.0776257  -0.0896345   0.0681543), wk = 0.0000000
        k (  137) = (   0.0776257   0.4929895   0.1363086), wk = 0.0043034
        k (  138) = (   0.0776257  -0.0896345   0.1363086), wk = 0.0000000
        k (  139) = (   0.0776257   0.4929895   0.2044629), wk = 0.0043034
        k (  140) = (   0.0776257  -0.0896345   0.2044629), wk = 0.0000000
        k (  141) = (   0.0776257   0.4929895   0.2726172), wk = 0.0043034
        k (  142) = (   0.0776257  -0.0896345   0.2726172), wk = 0.0000000
        k (  143) = (   0.0776257   0.4929895   0.3407715), wk = 0.0043034
        k (  144) = (   0.0776257  -0.0896345   0.3407715), wk = 0.0000000
        k (  145) = (   0.0776257   0.5826240   0.0000000), wk = 0.0021517
        k (  146) = (   0.0776257   0.0000000   0.0000000), wk = 0.0000000
        k (  147) = (   0.0776257   0.5826240   0.0681543), wk = 0.0043034
        k (  148) = (   0.0776257   0.0000000   0.0681543), wk = 0.0000000
        k (  149) = (   0.0776257   0.5826240   0.1363086), wk = 0.0043034
        k (  150) = (   0.0776257   0.0000000   0.1363086), wk = 0.0000000
        k (  151) = (   0.0776257   0.5826240   0.2044629), wk = 0.0043034
        k (  152) = (   0.0776257   0.0000000   0.2044629), wk = 0.0000000
        k (  153) = (   0.0776257   0.5826240   0.2726172), wk = 0.0043034
        k (  154) = (   0.0776257   0.0000000   0.2726172), wk = 0.0000000
        k (  155) = (   0.0776257   0.5826240   0.3407715), wk = 0.0043034
        k (  156) = (   0.0776257   0.0000000   0.3407715), wk = 0.0000000
        k (  157) = (   0.1552514   0.2689034   0.0000000), wk = 0.0043034
        k (  158) = (   0.1552514  -0.3137206   0.0000000), wk = 0.0000000
        k (  159) = (   0.1552514   0.2689034   0.0681543), wk = 0.0043034
        k (  160) = (   0.1552514  -0.3137206   0.0681543), wk = 0.0000000
        k (  161) = (   0.1552514   0.2689034   0.1363086), wk = 0.0043034
        k (  162) = (   0.1552514  -0.3137206   0.1363086), wk = 0.0000000
        k (  163) = (   0.1552514   0.2689034   0.2044629), wk = 0.0043034
        k (  164) = (   0.1552514  -0.3137206   0.2044629), wk = 0.0000000
        k (  165) = (   0.1552514   0.2689034   0.2726172), wk = 0.0043034
        k (  166) = (   0.1552514  -0.3137206   0.2726172), wk = 0.0000000
        k (  167) = (   0.1552514   0.2689034   0.3407715), wk = 0.0043034
        k (  168) = (   0.1552514  -0.3137206   0.3407715), wk = 0.0000000
        k (  169) = (   0.1552514   0.3585378   0.0000000), wk = 0.0043034
        k (  170) = (   0.1552514  -0.2240861   0.0000000), wk = 0.0000000
        k (  171) = (   0.1552514   0.3585378   0.0681543), wk = 0.0043034
        k (  172) = (   0.1552514  -0.2240861   0.0681543), wk = 0.0000000
        k (  173) = (   0.1552514   0.3585378   0.1363086), wk = 0.0043034
        k (  174) = (   0.1552514  -0.2240861   0.1363086), wk = 0.0000000
        k (  175) = (   0.1552514   0.3585378   0.2044629), wk = 0.0043034
        k (  176) = (   0.1552514  -0.2240861   0.2044629), wk = 0.0000000
        k (  177) = (   0.1552514   0.3585378   0.2726172), wk = 0.0043034
        k (  178) = (   0.1552514  -0.2240861   0.2726172), wk = 0.0000000
        k (  179) = (   0.1552514   0.3585378   0.3407715), wk = 0.0043034
        k (  180) = (   0.1552514  -0.2240861   0.3407715), wk = 0.0000000
        k (  181) = (   0.1552514   0.4481723   0.0000000), wk = 0.0043034
        k (  182) = (   0.1552514  -0.1344517   0.0000000), wk = 0.0000000
        k (  183) = (   0.1552514   0.4481723   0.0681543), wk = 0.0043034
        k (  184) = (   0.1552514  -0.1344517   0.0681543), wk = 0.0000000
        k (  185) = (   0.1552514   0.4481723   0.1363086), wk = 0.0043034
        k (  186) = (   0.1552514  -0.1344517   0.1363086), wk = 0.0000000
        k (  187) = (   0.1552514   0.4481723   0.2044629), wk = 0.0043034
        k (  188) = (   0.1552514  -0.1344517   0.2044629), wk = 0.0000000
        k (  189) = (   0.1552514   0.4481723   0.2726172), wk = 0.0043034
        k (  190) = (   0.1552514  -0.1344517   0.2726172), wk = 0.0000000
        k (  191) = (   0.1552514   0.4481723   0.3407715), wk = 0.0043034
        k (  192) = (   0.1552514  -0.1344517   0.3407715), wk = 0.0000000
        k (  193) = (   0.1552514   0.5378067   0.0000000), wk = 0.0043034
        k (  194) = (   0.1552514  -0.0448172   0.0000000), wk = 0.0000000
        k (  195) = (   0.1552514   0.5378067   0.0681543), wk = 0.0043034
        k (  196) = (   0.1552514  -0.0448172   0.0681543), wk = 0.0000000
        k (  197) = (   0.1552514   0.5378067   0.1363086), wk = 0.0043034
        k (  198) = (   0.1552514  -0.0448172   0.1363086), wk = 0.0000000
        k (  199) = (   0.1552514   0.5378067   0.2044629), wk = 0.0043034
        k (  200) = (   0.1552514  -0.0448172   0.2044629), wk = 0.0000000
        k (  201) = (   0.1552514   0.5378067   0.2726172), wk = 0.0043034
        k (  202) = (   0.1552514  -0.0448172   0.2726172), wk = 0.0000000
        k (  203) = (   0.1552514   0.5378067   0.3407715), wk = 0.0043034
        k (  204) = (   0.1552514  -0.0448172   0.3407715), wk = 0.0000000
        k (  205) = (   0.2328771   0.4033550   0.0000000), wk = 0.0043034
        k (  206) = (   0.2328771  -0.1792689   0.0000000), wk = 0.0000000
        k (  207) = (   0.2328771   0.4033550   0.0681543), wk = 0.0043034
        k (  208) = (   0.2328771  -0.1792689   0.0681543), wk = 0.0000000
        k (  209) = (   0.2328771   0.4033550   0.1363086), wk = 0.0043034
        k (  210) = (   0.2328771  -0.1792689   0.1363086), wk = 0.0000000
        k (  211) = (   0.2328771   0.4033550   0.2044629), wk = 0.0043034
        k (  212) = (   0.2328771  -0.1792689   0.2044629), wk = 0.0000000
        k (  213) = (   0.2328771   0.4033550   0.2726172), wk = 0.0043034
        k (  214) = (   0.2328771  -0.1792689   0.2726172), wk = 0.0000000
        k (  215) = (   0.2328771   0.4033550   0.3407715), wk = 0.0043034
        k (  216) = (   0.2328771  -0.1792689   0.3407715), wk = 0.0000000
        k (  217) = (   0.2328771   0.4929895   0.0000000), wk = 0.0043034
        k (  218) = (   0.2328771  -0.0896345   0.0000000), wk = 0.0000000
        k (  219) = (   0.2328771   0.4929895   0.0681543), wk = 0.0043034
        k (  220) = (   0.2328771  -0.0896345   0.0681543), wk = 0.0000000
        k (  221) = (   0.2328771   0.4929895   0.1363086), wk = 0.0043034
        k (  222) = (   0.2328771  -0.0896345   0.1363086), wk = 0.0000000
        k (  223) = (   0.2328771   0.4929895   0.2044629), wk = 0.0043034
        k (  224) = (   0.2328771  -0.0896345   0.2044629), wk = 0.0000000
        k (  225) = (   0.2328771   0.4929895   0.2726172), wk = 0.0043034
        k (  226) = (   0.2328771  -0.0896345   0.2726172), wk = 0.0000000
        k (  227) = (   0.2328771   0.4929895   0.3407715), wk = 0.0043034
        k (  228) = (   0.2328771  -0.0896345   0.3407715), wk = 0.0000000
        k (  229) = (   0.2328771   0.5826240   0.0000000), wk = 0.0021517
        k (  230) = (   0.2328771   0.0000000   0.0000000), wk = 0.0000000
        k (  231) = (   0.2328771   0.5826240   0.0681543), wk = 0.0043034
        k (  232) = (   0.2328771   0.0000000   0.0681543), wk = 0.0000000
        k (  233) = (   0.2328771   0.5826240   0.1363086), wk = 0.0043034
        k (  234) = (   0.2328771   0.0000000   0.1363086), wk = 0.0000000
        k (  235) = (   0.2328771   0.5826240   0.2044629), wk = 0.0043034
        k (  236) = (   0.2328771   0.0000000   0.2044629), wk = 0.0000000
        k (  237) = (   0.2328771   0.5826240   0.2726172), wk = 0.0043034
        k (  238) = (   0.2328771   0.0000000   0.2726172), wk = 0.0000000
        k (  239) = (   0.2328771   0.5826240   0.3407715), wk = 0.0043034
        k (  240) = (   0.2328771   0.0000000   0.3407715), wk = 0.0000000
        k (  241) = (   0.3105029   0.5378067   0.0000000), wk = 0.0043034
        k (  242) = (   0.3105029  -0.0448172   0.0000000), wk = 0.0000000
        k (  243) = (   0.3105029   0.5378067   0.0681543), wk = 0.0043034
        k (  244) = (   0.3105029  -0.0448172   0.0681543), wk = 0.0000000
        k (  245) = (   0.3105029   0.5378067   0.1363086), wk = 0.0043034
        k (  246) = (   0.3105029  -0.0448172   0.1363086), wk = 0.0000000
        k (  247) = (   0.3105029   0.5378067   0.2044629), wk = 0.0043034
        k (  248) = (   0.3105029  -0.0448172   0.2044629), wk = 0.0000000
        k (  249) = (   0.3105029   0.5378067   0.2726172), wk = 0.0043034
        k (  250) = (   0.3105029  -0.0448172   0.2726172), wk = 0.0000000
        k (  251) = (   0.3105029   0.5378067   0.3407715), wk = 0.0043034
        k (  252) = (   0.3105029  -0.0448172   0.3407715), wk = 0.0000000
        k (  253) = (  -0.0776257   0.0448172   0.0000000), wk = 0.0043034
        k (  254) = (  -0.0776257  -0.5378067   0.0000000), wk = 0.0000000
        k (  255) = (  -0.0776257   0.0448172  -0.0681543), wk = 0.0043034
        k (  256) = (  -0.0776257  -0.5378067  -0.0681543), wk = 0.0000000
        k (  257) = (   0.0000000   0.0896345  -0.0681543), wk = 0.0021517
        k (  258) = (   0.0000000  -0.4929895  -0.0681543), wk = 0.0000000
        k (  259) = (   0.0776257  -0.0448172  -0.0681543), wk = 0.0043034
        k (  260) = (   0.0776257  -0.6274412  -0.0681543), wk = 0.0000000
        k (  261) = (  -0.0776257   0.0448172  -0.1363086), wk = 0.0043034
        k (  262) = (  -0.0776257  -0.5378067  -0.1363086), wk = 0.0000000
        k (  263) = (   0.0000000   0.0896345  -0.1363086), wk = 0.0021517
        k (  264) = (   0.0000000  -0.4929895  -0.1363086), wk = 0.0000000
        k (  265) = (   0.0776257  -0.0448172  -0.1363086), wk = 0.0043034
        k (  266) = (   0.0776257  -0.6274412  -0.1363086), wk = 0.0000000
        k (  267) = (  -0.0776257   0.0448172  -0.2044629), wk = 0.0043034
        k (  268) = (  -0.0776257  -0.5378067  -0.2044629), wk = 0.0000000
        k (  269) = (   0.0000000   0.0896345  -0.2044629), wk = 0.0021517
        k (  270) = (   0.0000000  -0.4929895  -0.2044629), wk = 0.0000000
        k (  271) = (   0.0776257  -0.0448172  -0.2044629), wk = 0.0043034
        k (  272) = (   0.0776257  -0.6274412  -0.2044629), wk = 0.0000000
        k (  273) = (  -0.0776257   0.0448172  -0.2726172), wk = 0.0043034
        k (  274) = (  -0.0776257  -0.5378067  -0.2726172), wk = 0.0000000
        k (  275) = (   0.0000000   0.0896345  -0.2726172), wk = 0.0021517
        k (  276) = (   0.0000000  -0.4929895  -0.2726172), wk = 0.0000000
        k (  277) = (   0.0776257  -0.0448172  -0.2726172), wk = 0.0043034
        k (  278) = (   0.0776257  -0.6274412  -0.2726172), wk = 0.0000000
        k (  279) = (  -0.0776257   0.0448172  -0.3407715), wk = 0.0043034
        k (  280) = (  -0.0776257  -0.5378067  -0.3407715), wk = 0.0000000
        k (  281) = (   0.0000000   0.0896345  -0.3407715), wk = 0.0021517
        k (  282) = (   0.0000000  -0.4929895  -0.3407715), wk = 0.0000000
        k (  283) = (   0.0776257  -0.0448172  -0.3407715), wk = 0.0043034
        k (  284) = (   0.0776257  -0.6274412  -0.3407715), wk = 0.0000000
        k (  285) = (  -0.1552514   0.0896345   0.0000000), wk = 0.0043034
        k (  286) = (  -0.1552514  -0.4929895   0.0000000), wk = 0.0000000
        k (  287) = (  -0.1552514   0.0896345  -0.0681543), wk = 0.0043034
        k (  288) = (  -0.1552514  -0.4929895  -0.0681543), wk = 0.0000000
        k (  289) = (   0.0000000   0.1792689  -0.0681543), wk = 0.0021517
        k (  290) = (   0.0000000  -0.4033550  -0.0681543), wk = 0.0000000
        k (  291) = (   0.1552514  -0.0896345  -0.0681543), wk = 0.0043034
        k (  292) = (   0.1552514  -0.6722584  -0.0681543), wk = 0.0000000
        k (  293) = (  -0.1552514   0.0896345  -0.1363086), wk = 0.0043034
        k (  294) = (  -0.1552514  -0.4929895  -0.1363086), wk = 0.0000000
        k (  295) = (   0.0000000   0.1792689  -0.1363086), wk = 0.0021517
        k (  296) = (   0.0000000  -0.4033550  -0.1363086), wk = 0.0000000
        k (  297) = (   0.1552514  -0.0896345  -0.1363086), wk = 0.0043034
        k (  298) = (   0.1552514  -0.6722584  -0.1363086), wk = 0.0000000
        k (  299) = (  -0.1552514   0.0896345  -0.2044629), wk = 0.0043034
        k (  300) = (  -0.1552514  -0.4929895  -0.2044629), wk = 0.0000000
        k (  301) = (   0.0000000   0.1792689  -0.2044629), wk = 0.0021517
        k (  302) = (   0.0000000  -0.4033550  -0.2044629), wk = 0.0000000
        k (  303) = (   0.1552514  -0.0896345  -0.2044629), wk = 0.0043034
        k (  304) = (   0.1552514  -0.6722584  -0.2044629), wk = 0.0000000
        k (  305) = (  -0.1552514   0.0896345  -0.2726172), wk = 0.0043034
        k (  306) = (  -0.1552514  -0.4929895  -0.2726172), wk = 0.0000000
        k (  307) = (   0.0000000   0.1792689  -0.2726172), wk = 0.0021517
        k (  308) = (   0.0000000  -0.4033550  -0.2726172), wk = 0.0000000
        k (  309) = (   0.1552514  -0.0896345  -0.2726172), wk = 0.0043034
        k (  310) = (   0.1552514  -0.6722584  -0.2726172), wk = 0.0000000
        k (  311) = (  -0.1552514   0.0896345  -0.3407715), wk = 0.0043034
        k (  312) = (  -0.1552514  -0.4929895  -0.3407715), wk = 0.0000000
        k (  313) = (   0.0000000   0.1792689  -0.3407715), wk = 0.0021517
        k (  314) = (   0.0000000  -0.4033550  -0.3407715), wk = 0.0000000
        k (  315) = (   0.1552514  -0.0896345  -0.3407715), wk = 0.0043034
        k (  316) = (   0.1552514  -0.6722584  -0.3407715), wk = 0.0000000
        k (  317) = (  -0.2328771   0.1344517   0.0000000), wk = 0.0043034
        k (  318) = (  -0.2328771  -0.4481723   0.0000000), wk = 0.0000000
        k (  319) = (  -0.2328771   0.1344517  -0.0681543), wk = 0.0043034
        k (  320) = (  -0.2328771  -0.4481723  -0.0681543), wk = 0.0000000
        k (  321) = (   0.0000000   0.2689034  -0.0681543), wk = 0.0021517
        k (  322) = (   0.0000000  -0.3137206  -0.0681543), wk = 0.0000000
        k (  323) = (   0.2328771  -0.1344517  -0.0681543), wk = 0.0043034
        k (  324) = (   0.2328771  -0.7170756  -0.0681543), wk = 0.0000000
        k (  325) = (  -0.2328771   0.1344517  -0.1363086), wk = 0.0043034
        k (  326) = (  -0.2328771  -0.4481723  -0.1363086), wk = 0.0000000
        k (  327) = (   0.0000000   0.2689034  -0.1363086), wk = 0.0021517
        k (  328) = (   0.0000000  -0.3137206  -0.1363086), wk = 0.0000000
        k (  329) = (   0.2328771  -0.1344517  -0.1363086), wk = 0.0043034
        k (  330) = (   0.2328771  -0.7170756  -0.1363086), wk = 0.0000000
        k (  331) = (  -0.2328771   0.1344517  -0.2044629), wk = 0.0043034
        k (  332) = (  -0.2328771  -0.4481723  -0.2044629), wk = 0.0000000
        k (  333) = (   0.0000000   0.2689034  -0.2044629), wk = 0.0021517
        k (  334) = (   0.0000000  -0.3137206  -0.2044629), wk = 0.0000000
        k (  335) = (   0.2328771  -0.1344517  -0.2044629), wk = 0.0043034
        k (  336) = (   0.2328771  -0.7170756  -0.2044629), wk = 0.0000000
        k (  337) = (  -0.2328771   0.1344517  -0.2726172), wk = 0.0043034
        k (  338) = (  -0.2328771  -0.4481723  -0.2726172), wk = 0.0000000
        k (  339) = (   0.0000000   0.2689034  -0.2726172), wk = 0.0021517
        k (  340) = (   0.0000000  -0.3137206  -0.2726172), wk = 0.0000000
        k (  341) = (   0.2328771  -0.1344517  -0.2726172), wk = 0.0043034
        k (  342) = (   0.2328771  -0.7170756  -0.2726172), wk = 0.0000000
        k (  343) = (  -0.2328771   0.1344517  -0.3407715), wk = 0.0043034
        k (  344) = (  -0.2328771  -0.4481723  -0.3407715), wk = 0.0000000
        k (  345) = (   0.0000000   0.2689034  -0.3407715), wk = 0.0021517
        k (  346) = (   0.0000000  -0.3137206  -0.3407715), wk = 0.0000000
        k (  347) = (   0.2328771  -0.1344517  -0.3407715), wk = 0.0043034
        k (  348) = (   0.2328771  -0.7170756  -0.3407715), wk = 0.0000000
        k (  349) = (  -0.3105029   0.1792689   0.0000000), wk = 0.0043034
        k (  350) = (  -0.3105029  -0.4033550   0.0000000), wk = 0.0000000
        k (  351) = (  -0.3105029   0.1792689  -0.0681543), wk = 0.0043034
        k (  352) = (  -0.3105029  -0.4033550  -0.0681543), wk = 0.0000000
        k (  353) = (   0.0000000   0.3585378  -0.0681543), wk = 0.0021517
        k (  354) = (   0.0000000  -0.2240861  -0.0681543), wk = 0.0000000
        k (  355) = (   0.3105029  -0.1792689  -0.0681543), wk = 0.0043034
        k (  356) = (   0.3105029  -0.7618929  -0.0681543), wk = 0.0000000
        k (  357) = (  -0.3105029   0.1792689  -0.1363086), wk = 0.0043034
        k (  358) = (  -0.3105029  -0.4033550  -0.1363086), wk = 0.0000000
        k (  359) = (   0.0000000   0.3585378  -0.1363086), wk = 0.0021517
        k (  360) = (   0.0000000  -0.2240861  -0.1363086), wk = 0.0000000
        k (  361) = (   0.3105029  -0.1792689  -0.1363086), wk = 0.0043034
        k (  362) = (   0.3105029  -0.7618929  -0.1363086), wk = 0.0000000
        k (  363) = (  -0.3105029   0.1792689  -0.2044629), wk = 0.0043034
        k (  364) = (  -0.3105029  -0.4033550  -0.2044629), wk = 0.0000000
        k (  365) = (   0.0000000   0.3585378  -0.2044629), wk = 0.0021517
        k (  366) = (   0.0000000  -0.2240861  -0.2044629), wk = 0.0000000
        k (  367) = (   0.3105029  -0.1792689  -0.2044629), wk = 0.0043034
        k (  368) = (   0.3105029  -0.7618929  -0.2044629), wk = 0.0000000
        k (  369) = (  -0.3105029   0.1792689  -0.2726172), wk = 0.0043034
        k (  370) = (  -0.3105029  -0.4033550  -0.2726172), wk = 0.0000000
        k (  371) = (   0.0000000   0.3585378  -0.2726172), wk = 0.0021517
        k (  372) = (   0.0000000  -0.2240861  -0.2726172), wk = 0.0000000
        k (  373) = (   0.3105029  -0.1792689  -0.2726172), wk = 0.0043034
        k (  374) = (   0.3105029  -0.7618929  -0.2726172), wk = 0.0000000
        k (  375) = (  -0.3105029   0.1792689  -0.3407715), wk = 0.0043034
        k (  376) = (  -0.3105029  -0.4033550  -0.3407715), wk = 0.0000000
        k (  377) = (   0.0000000   0.3585378  -0.3407715), wk = 0.0021517
        k (  378) = (   0.0000000  -0.2240861  -0.3407715), wk = 0.0000000
[...]
        k (  860) = (  -0.5384615  -0.1153846  -0.2727273), wk = 0.0000000
        k (  861) = (   0.3846154   0.1538462  -0.2727273), wk = 0.0043034
        k (  862) = (   0.3846154  -0.3461538  -0.2727273), wk = 0.0000000
        k (  863) = (  -0.1538462   0.5384615  -0.2727273), wk = 0.0043034
        k (  864) = (  -0.1538462   0.0384615  -0.2727273), wk = 0.0000000
        k (  865) = (   0.3846154  -0.5384615  -0.2727273), wk = 0.0043034
        k (  866) = (   0.3846154  -1.0384615  -0.2727273), wk = 0.0000000
        k (  867) = (  -0.5384615   0.1538462  -0.2727273), wk = 0.0043034
        k (  868) = (  -0.5384615  -0.3461538  -0.2727273), wk = 0.0000000
        k (  869) = (  -0.5384615   0.3846154  -0.3636364), wk = 0.0043034
        k (  870) = (  -0.5384615  -0.1153846  -0.3636364), wk = 0.0000000
        k (  871) = (   0.3846154   0.1538462  -0.3636364), wk = 0.0043034
        k (  872) = (   0.3846154  -0.3461538  -0.3636364), wk = 0.0000000
        k (  873) = (  -0.1538462   0.5384615  -0.3636364), wk = 0.0043034
        k (  874) = (  -0.1538462   0.0384615  -0.3636364), wk = 0.0000000
        k (  875) = (   0.3846154  -0.5384615  -0.3636364), wk = 0.0043034
        k (  876) = (   0.3846154  -1.0384615  -0.3636364), wk = 0.0000000
        k (  877) = (  -0.5384615   0.1538462  -0.3636364), wk = 0.0043034
        k (  878) = (  -0.5384615  -0.3461538  -0.3636364), wk = 0.0000000
        k (  879) = (  -0.5384615   0.3846154  -0.4545455), wk = 0.0043034
        k (  880) = (  -0.5384615  -0.1153846  -0.4545455), wk = 0.0000000
        k (  881) = (   0.3846154   0.1538462  -0.4545455), wk = 0.0043034
        k (  882) = (   0.3846154  -0.3461538  -0.4545455), wk = 0.0000000
        k (  883) = (  -0.1538462   0.5384615  -0.4545455), wk = 0.0043034
        k (  884) = (  -0.1538462   0.0384615  -0.4545455), wk = 0.0000000
        k (  885) = (   0.3846154  -0.5384615  -0.4545455), wk = 0.0043034
        k (  886) = (   0.3846154  -1.0384615  -0.4545455), wk = 0.0000000
        k (  887) = (  -0.5384615   0.1538462  -0.4545455), wk = 0.0043034
        k (  888) = (  -0.5384615  -0.3461538  -0.4545455), wk = 0.0000000
        k (  889) = (  -0.4615385   0.2307692   0.0000000), wk = 0.0021517
        k (  890) = (  -0.4615385  -0.2692308   0.0000000), wk = 0.0000000
        k (  891) = (  -0.4615385   0.2307692  -0.0909091), wk = 0.0043034
        k (  892) = (  -0.4615385  -0.2692308  -0.0909091), wk = 0.0000000
        k (  893) = (   0.2307692   0.2307692  -0.0909091), wk = 0.0043034
        k (  894) = (   0.2307692  -0.2692308  -0.0909091), wk = 0.0000000
        k (  895) = (  -0.4615385   0.2307692  -0.1818182), wk = 0.0043034
        k (  896) = (  -0.4615385  -0.2692308  -0.1818182), wk = 0.0000000
        k (  897) = (   0.2307692   0.2307692  -0.1818182), wk = 0.0043034
        k (  898) = (   0.2307692  -0.2692308  -0.1818182), wk = 0.0000000
        k (  899) = (  -0.4615385   0.2307692  -0.2727273), wk = 0.0043034
        k (  900) = (  -0.4615385  -0.2692308  -0.2727273), wk = 0.0000000
        k (  901) = (   0.2307692   0.2307692  -0.2727273), wk = 0.0043034
        k (  902) = (   0.2307692  -0.2692308  -0.2727273), wk = 0.0000000
        k (  903) = (  -0.4615385   0.2307692  -0.3636364), wk = 0.0043034
        k (  904) = (  -0.4615385  -0.2692308  -0.3636364), wk = 0.0000000
        k (  905) = (   0.2307692   0.2307692  -0.3636364), wk = 0.0043034
        k (  906) = (   0.2307692  -0.2692308  -0.3636364), wk = 0.0000000
        k (  907) = (  -0.4615385   0.2307692  -0.4545455), wk = 0.0043034
        k (  908) = (  -0.4615385  -0.2692308  -0.4545455), wk = 0.0000000
        k (  909) = (   0.2307692   0.2307692  -0.4545455), wk = 0.0043034
        k (  910) = (   0.2307692  -0.2692308  -0.4545455), wk = 0.0000000
        k (  911) = (  -0.5384615   0.3076923   0.0000000), wk = 0.0043034
        k (  912) = (  -0.5384615  -0.1923077   0.0000000), wk = 0.0000000
        k (  913) = (   0.3076923   0.2307692   0.0000000), wk = 0.0043034
        k (  914) = (   0.3076923  -0.2692308   0.0000000), wk = 0.0000000
        k (  915) = (  -0.5384615   0.3076923  -0.0909091), wk = 0.0043034
        k (  916) = (  -0.5384615  -0.1923077  -0.0909091), wk = 0.0000000
        k (  917) = (   0.3076923   0.2307692  -0.0909091), wk = 0.0043034
        k (  918) = (   0.3076923  -0.2692308  -0.0909091), wk = 0.0000000
        k (  919) = (  -0.2307692   0.5384615  -0.0909091), wk = 0.0043034
        k (  920) = (  -0.2307692   0.0384615  -0.0909091), wk = 0.0000000
        k (  921) = (   0.3076923  -0.5384615  -0.0909091), wk = 0.0043034
        k (  922) = (   0.3076923  -1.0384615  -0.0909091), wk = 0.0000000
        k (  923) = (  -0.5384615   0.2307692  -0.0909091), wk = 0.0043034
        k (  924) = (  -0.5384615  -0.2692308  -0.0909091), wk = 0.0000000
        k (  925) = (  -0.5384615   0.3076923  -0.1818182), wk = 0.0043034
        k (  926) = (  -0.5384615  -0.1923077  -0.1818182), wk = 0.0000000
        k (  927) = (   0.3076923   0.2307692  -0.1818182), wk = 0.0043034
        k (  928) = (   0.3076923  -0.2692308  -0.1818182), wk = 0.0000000
        k (  929) = (  -0.2307692   0.5384615  -0.1818182), wk = 0.0043034
        k (  930) = (  -0.2307692   0.0384615  -0.1818182), wk = 0.0000000
        k (  931) = (   0.3076923  -0.5384615  -0.1818182), wk = 0.0043034
        k (  932) = (   0.3076923  -1.0384615  -0.1818182), wk = 0.0000000
        k (  933) = (  -0.5384615   0.2307692  -0.1818182), wk = 0.0043034
        k (  934) = (  -0.5384615  -0.2692308  -0.1818182), wk = 0.0000000
        k (  935) = (  -0.5384615   0.3076923  -0.2727273), wk = 0.0043034
        k (  936) = (  -0.5384615  -0.1923077  -0.2727273), wk = 0.0000000
        k (  937) = (   0.3076923   0.2307692  -0.2727273), wk = 0.0043034
        k (  938) = (   0.3076923  -0.2692308  -0.2727273), wk = 0.0000000
        k (  939) = (  -0.2307692   0.5384615  -0.2727273), wk = 0.0043034
        k (  940) = (  -0.2307692   0.0384615  -0.2727273), wk = 0.0000000
        k (  941) = (   0.3076923  -0.5384615  -0.2727273), wk = 0.0043034
        k (  942) = (   0.3076923  -1.0384615  -0.2727273), wk = 0.0000000
        k (  943) = (  -0.5384615   0.2307692  -0.2727273), wk = 0.0043034
        k (  944) = (  -0.5384615  -0.2692308  -0.2727273), wk = 0.0000000
        k (  945) = (  -0.5384615   0.3076923  -0.3636364), wk = 0.0043034
        k (  946) = (  -0.5384615  -0.1923077  -0.3636364), wk = 0.0000000
        k (  947) = (   0.3076923   0.2307692  -0.3636364), wk = 0.0043034
        k (  948) = (   0.3076923  -0.2692308  -0.3636364), wk = 0.0000000
        k (  949) = (  -0.2307692   0.5384615  -0.3636364), wk = 0.0043034
        k (  950) = (  -0.2307692   0.0384615  -0.3636364), wk = 0.0000000
        k (  951) = (   0.3076923  -0.5384615  -0.3636364), wk = 0.0043034
        k (  952) = (   0.3076923  -1.0384615  -0.3636364), wk = 0.0000000
        k (  953) = (  -0.5384615   0.2307692  -0.3636364), wk = 0.0043034
        k (  954) = (  -0.5384615  -0.2692308  -0.3636364), wk = 0.0000000
        k (  955) = (  -0.5384615   0.3076923  -0.4545455), wk = 0.0043034
        k (  956) = (  -0.5384615  -0.1923077  -0.4545455), wk = 0.0000000
        k (  957) = (   0.3076923   0.2307692  -0.4545455), wk = 0.0043034
        k (  958) = (   0.3076923  -0.2692308  -0.4545455), wk = 0.0000000
        k (  959) = (  -0.2307692   0.5384615  -0.4545455), wk = 0.0043034
        k (  960) = (  -0.2307692   0.0384615  -0.4545455), wk = 0.0000000
        k (  961) = (   0.3076923  -0.5384615  -0.4545455), wk = 0.0043034
        k (  962) = (   0.3076923  -1.0384615  -0.4545455), wk = 0.0000000
        k (  963) = (  -0.5384615   0.2307692  -0.4545455), wk = 0.0043034
        k (  964) = (  -0.5384615  -0.2692308  -0.4545455), wk = 0.0000000
        k (  965) = (  -0.6153846   0.3846154   0.0000000), wk = 0.0043034
        k (  966) = (  -0.6153846  -0.1153846   0.0000000), wk = 0.0000000
        k (  967) = (  -0.6153846   0.3846154  -0.0909091), wk = 0.0043034
        k (  968) = (  -0.6153846  -0.1153846  -0.0909091), wk = 0.0000000
        k (  969) = (   0.3846154   0.2307692  -0.0909091), wk = 0.0043034
        k (  970) = (   0.3846154  -0.2692308  -0.0909091), wk = 0.0000000
        k (  971) = (  -0.6153846   0.3846154  -0.1818182), wk = 0.0043034
        k (  972) = (  -0.6153846  -0.1153846  -0.1818182), wk = 0.0000000
        k (  973) = (   0.3846154   0.2307692  -0.1818182), wk = 0.0043034
        k (  974) = (   0.3846154  -0.2692308  -0.1818182), wk = 0.0000000
        k (  975) = (  -0.6153846   0.3846154  -0.2727273), wk = 0.0043034
        k (  976) = (  -0.6153846  -0.1153846  -0.2727273), wk = 0.0000000
        k (  977) = (   0.3846154   0.2307692  -0.2727273), wk = 0.0043034
        k (  978) = (   0.3846154  -0.2692308  -0.2727273), wk = 0.0000000
        k (  979) = (  -0.6153846   0.3846154  -0.3636364), wk = 0.0043034
        k (  980) = (  -0.6153846  -0.1153846  -0.3636364), wk = 0.0000000
        k (  981) = (   0.3846154   0.2307692  -0.3636364), wk = 0.0043034
        k (  982) = (   0.3846154  -0.2692308  -0.3636364), wk = 0.0000000
        k (  983) = (  -0.6153846   0.3846154  -0.4545455), wk = 0.0043034
        k (  984) = (  -0.6153846  -0.1153846  -0.4545455), wk = 0.0000000
        k (  985) = (   0.3846154   0.2307692  -0.4545455), wk = 0.0043034
        k (  986) = (   0.3846154  -0.2692308  -0.4545455), wk = 0.0000000
        k (  987) = (  -0.6153846   0.3076923   0.0000000), wk = 0.0021517
        k (  988) = (  -0.6153846  -0.1923077   0.0000000), wk = 0.0000000
        k (  989) = (  -0.6153846   0.3076923  -0.0909091), wk = 0.0043034
        k (  990) = (  -0.6153846  -0.1923077  -0.0909091), wk = 0.0000000
        k (  991) = (   0.3076923   0.3076923  -0.0909091), wk = 0.0043034
        k (  992) = (   0.3076923  -0.1923077  -0.0909091), wk = 0.0000000
        k (  993) = (  -0.6153846   0.3076923  -0.1818182), wk = 0.0043034
        k (  994) = (  -0.6153846  -0.1923077  -0.1818182), wk = 0.0000000
        k (  995) = (   0.3076923   0.3076923  -0.1818182), wk = 0.0043034
        k (  996) = (   0.3076923  -0.1923077  -0.1818182), wk = 0.0000000
        k (  997) = (  -0.6153846   0.3076923  -0.2727273), wk = 0.0043034
        k (  998) = (  -0.6153846  -0.1923077  -0.2727273), wk = 0.0000000
        k (  999) = (   0.3076923   0.3076923  -0.2727273), wk = 0.0043034
        k ( 1000) = (   0.3076923  -0.1923077  -0.2727273), wk = 0.0000000
        k ( 1001) = (  -0.6153846   0.3076923  -0.3636364), wk = 0.0043034
        k ( 1002) = (  -0.6153846  -0.1923077  -0.3636364), wk = 0.0000000
        k ( 1003) = (   0.3076923   0.3076923  -0.3636364), wk = 0.0043034
        k ( 1004) = (   0.3076923  -0.1923077  -0.3636364), wk = 0.0000000
        k ( 1005) = (  -0.6153846   0.3076923  -0.4545455), wk = 0.0043034
        k ( 1006) = (  -0.6153846  -0.1923077  -0.4545455), wk = 0.0000000
        k ( 1007) = (   0.3076923   0.3076923  -0.4545455), wk = 0.0043034
        k ( 1008) = (   0.3076923  -0.1923077  -0.4545455), wk = 0.0000000

     Atomic wfc used for the projector on the Hubbard manifold are orthogonalized

     Total time spent up to now is:
     HP           :   8m33.23s CPU   9m20.80s WALL

      =--------------------------------------------=
                 SOLVE THE LINEAR SYSTEM
      =--------------------------------------------=

      atom #  1   q point #   2   iter #   1
      chi:   1  -0.3328527556
      Average number of iter. to solve lin. system:   38.4
      Total CPU time :   716.0 s

      atom #  1   q point #   2   iter #   2
      chi:   1   0.0563766758   residue:    0.3892294314
      Average number of iter. to solve lin. system:   14.3
      Total CPU time :   861.2 s

      atom #  1   q point #   2   iter #   3
      chi:   1  -0.1271167647   residue:    0.1834934405
      Average number of iter. to solve lin. system:   13.0
      Total CPU time :   963.9 s

      atom #  1   q point #   2   iter #   4
      chi:   1  -0.1338317575   residue:    0.0067149928
      Average number of iter. to solve lin. system:   14.0
      Total CPU time :  1077.6 s

      atom #  1   q point #   2   iter #   5
      chi:   1  -0.1331103366   residue:    0.0007214210
      Average number of iter. to solve lin. system:   15.6
      Total CPU time :  1182.4 s

      atom #  1   q point #   2   iter #   6
      chi:   1  -0.1326755023   residue:    0.0004348343
      Average number of iter. to solve lin. system:   15.8
      Total CPU time :  1318.6 s

      atom #  1   q point #   2   iter #   7
      chi:   1  -0.1326705213   residue:    0.0000049809
      Average number of iter. to solve lin. system:   14.4
      Total CPU time :  1438.6 s

      atom #  1   q point #   2   iter #   8
      chi:   1  -0.1327149289   residue:    0.0000444076
      Average number of iter. to solve lin. system:   15.1
      Total CPU time :  1562.7 s

      atom #  1   q point #   2   iter #   9
      chi:   1  -0.1327178704   residue:    0.0000029414
      Average number of iter. to solve lin. system:   14.9
      Total CPU time :  1694.9 s

      atom #  1   q point #   2   iter #  10
      chi:   1  -0.1327152526   residue:    0.0000026178
      Average number of iter. to solve lin. system:   15.1
      Total CPU time :  1806.7 s

      atom #  1   q point #   2   iter #  11
      chi:   1  -0.1327171239   residue:    0.0000018713
      Average number of iter. to solve lin. system:   15.5
      Total CPU time :  1933.8 s

      atom #  1   q point #   2   iter #  12
      chi:   1  -0.1327166944   residue:    0.0000004295
      Average number of iter. to solve lin. system:   14.9
      Total CPU time :  2047.3 s

      atom #  1   q point #   2   iter #  13
      chi:   1  -0.1327170444   residue:    0.0000003500
      Average number of iter. to solve lin. system:   15.8
      Total CPU time :  2203.3 s

      atom #  1   q point #   2   iter #  14
      chi:   1  -0.1327170196   residue:    0.0000000248
      Average number of iter. to solve lin. system:   15.1
      Total CPU time :  2327.9 s
      
      =--------------------------------------------=
             CONVERGENCE HAS BEEN REACHED
      =--------------------------------------------=

     Computing the sum over q of the response occupation matrices...

     q #   1 =  0.000000000   0.000000000   0.000000000
 
     Number of q in the star =    1
     List of q in the star:
          1   0.000000000   0.000000000   0.000000000

     q #   2 =  0.000000000  -0.582623955   0.000000000
 
     Number of q in the star =    3
     List of q in the star:
          1   0.000000000  -0.582623955   0.000000000
          2   0.504567146  -0.291311978   0.000000000
          3  -0.504567146  -0.291311978   0.000000000

     Post-processing calculation of Hubbard parameters ...

 
     PRINTING TIMING FROM PWSCF ROUTINES: 
 
     init_run     :      3.51s CPU      4.59s WALL (       1 calls)
     electrons    :    186.35s CPU    191.65s WALL (       1 calls)

     Called by init_run:
     wfcinit      :      3.44s CPU      3.98s WALL (       1 calls)
     wfcinit:atom :      0.06s CPU      0.07s WALL (    1008 calls)
     wfcinit:wfcr :      8.17s CPU      9.63s WALL (    1008 calls)
     potinit      :      0.00s CPU      0.00s WALL (       1 calls)
     hinit0       :      0.03s CPU      0.03s WALL (       1 calls)

     Called by electrons:
     c_bands      :    186.32s CPU    191.61s WALL (       1 calls)
     v_of_rho     :      0.00s CPU      0.01s WALL (       2 calls)
     v_h          :      0.00s CPU      0.00s WALL (       2 calls)
     v_xc         :      0.00s CPU      0.01s WALL (       2 calls)

     Called by c_bands:
     init_us_2    :      1.23s CPU      1.35s WALL (   11620 calls)
     init_us_2:cp :      1.22s CPU      1.34s WALL (   11620 calls)
     cegterg      :    145.22s CPU    147.93s WALL (    1041 calls)

     Called by sum_band:

     Called by *egterg:
     cdiaghg      :     71.42s CPU     73.99s WALL (   19199 calls)
     cegterg:over :     10.54s CPU     10.73s WALL (   18191 calls)
     cegterg:upda :      5.71s CPU      5.84s WALL (   18191 calls)
     cegterg:last :      2.23s CPU      2.35s WALL (    3062 calls)
     cdiaghg:chol :      3.61s CPU      3.65s WALL (   19199 calls)
     cdiaghg:inve :      2.98s CPU      3.01s WALL (   19199 calls)
     cdiaghg:para :      5.78s CPU      6.07s WALL (   38398 calls)
     h_psi        :   1341.52s CPU   1366.08s WALL (  314597 calls)
     g_psi        :      0.26s CPU      0.26s WALL (   18191 calls)

     Called by h_psi:
     h_psi:calbec :     45.77s CPU     46.97s WALL (  314597 calls)
     vloc_psi     :   1245.53s CPU   1267.63s WALL (  314597 calls)
     add_vuspsi   :     33.58s CPU     34.49s WALL (  314597 calls)
     vhpsi        :     14.02s CPU     14.38s WALL (  314597 calls)

     General routines
     calbec       :    100.08s CPU    102.93s WALL (  924755 calls)
     fft          :      0.06s CPU      0.13s WALL (     338 calls)
     ffts         :      0.54s CPU      0.55s WALL (    4931 calls)
     fftw         :   1594.42s CPU   1619.27s WALL ( 9686746 calls)
     davcio       :     12.00s CPU    133.33s WALL (  383021 calls)
 
     Parallel routines

     Hubbard U routines
     vhpsi        :     14.02s CPU     14.38s WALL (  314597 calls)
 
     init_vloc    :      0.02s CPU      0.02s WALL (       2 calls)
     init_us_1    :      0.01s CPU      0.01s WALL (       2 calls)
     add_vuspsi   :     33.58s CPU     34.49s WALL (  314597 calls)
 
     PRINTING TIMING FROM HP ROUTINES: 
 
     hp_setup_q   :      0.01s CPU      0.01s WALL (       2 calls)
     hp_init_q    :      3.37s CPU      5.03s WALL (       2 calls)
     hp_solve_lin :   1938.85s CPU   2086.73s WALL (       2 calls)
     hp_dvpsi_per :      8.40s CPU      9.30s WALL (     700 calls)
     hp_dnsq      :     74.47s CPU     82.14s WALL (      26 calls)
     hp_symdnsq   :      0.00s CPU      0.00s WALL (      26 calls)
     hp_dnstot_su :      0.00s CPU      0.09s WALL (       1 calls)
     hp_rotate_dn :      0.00s CPU      0.00s WALL (       4 calls)
     hp_calc_chi  :      0.00s CPU      0.00s WALL (       1 calls)
     hp_postproc  :      0.00s CPU      0.07s WALL (       1 calls)
     ef_shift     :      0.00s CPU      0.00s WALL (      12 calls)
     hp_run_nscf  :    196.61s CPU    221.07s WALL (       1 calls)
     hp_postproc  :      0.00s CPU      0.07s WALL (       1 calls)
     hp_psymdvscf :      0.58s CPU      0.68s WALL (      26 calls)
 
     PRINTING TIMING FROM LR MODULE: 
 
     sth_kernel   :   1851.39s CPU   1989.51s WALL (      26 calls)
     apply_dpot_b :    123.33s CPU    125.20s WALL (    8708 calls)
     ortho        :      7.92s CPU      8.02s WALL (    9408 calls)
     cgsolve      :   1388.25s CPU   1457.35s WALL (    9408 calls)
     ch_psi       :   1371.45s CPU   1439.91s WALL (  294357 calls)
     incdrhoscf   :    264.49s CPU    266.46s WALL (    9408 calls)
     localdos     :      0.85s CPU      0.90s WALL (       1 calls)
     dv_of_drho   :      0.06s CPU      0.07s WALL (      26 calls)
     mix_pot      :      3.07s CPU      4.07s WALL (      26 calls)
     setup_dgc    :      0.01s CPU      0.01s WALL (       2 calls)
     setup_dmuxc  :      0.00s CPU      0.00s WALL (       2 calls)
     setup_nbnd_o :      0.00s CPU      0.00s WALL (       2 calls)
     lr_orthoUwfc :      3.37s CPU      3.52s WALL (       2 calls)
     cft_wave     :    121.66s CPU    123.44s WALL (  438370 calls)
 
     HP           :  35m42.90s CPU  38m48.11s WALL

 
   This run was terminated on:  18:51:28   5Sep2022            

=------------------------------------------------------------------------------=
   JOB DONE.
=------------------------------------------------------------------------------=
